# vtk DataFile Version 2.0
FlowField
ASCII
DATASET STRUCTURED_GRID
DIMENSIONS 1602 1 52
POINTS 83304 float
0 0 0
0.1 0 0
0.2 0 0
0.3 0 0
0.4 0 0
0.5 0 0
0.6 0 0
0.7 0 0
0.8 0 0
0.9 0 0
1 0 0
1.1 0 0
1.2 0 0
1.3 0 0
1.4 0 0
1.5 0 0
1.6 0 0
1.7 0 0
1.8 0 0
1.9 0 0
2 0 0
2.1 0 0
2.2 0 0
2.3 0 0
2.4 0 0
2.5 0 0
2.6 0 0
2.7 0 0
2.8 0 0
2.9 0 0
3 0 0
3.1 0 0
3.2 0 0
3.3 0 0
3.4 0 0
3.5 0 0
3.6 0 0
3.7 0 0
3.8 0 0
3.9 0 0
4 0 0
4.1 0 0
4.2 0 0
4.3 0 0
4.4 0 0
4.5 0 0
4.6 0 0
4.7 0 0
4.8 0 0
4.9 0 0
5 0 0
5.1 0 0
5.2 0 0
5.3 0 0
5.4 0 0
5.5 0 0
5.6 0 0
5.7 0 0
5.8 0 0
5.9 0 0
6 0 0
6.1 0 0
6.2 0 0
6.3 0 0
6.4 0 0
6.5 0 0
6.6 0 0
6.7 0 0
6.8 0 0
6.9 0 0
7 0 0
7.1 0 0
7.2 0 0
7.3 0 0
7.4 0 0
7.5 0 0
7.6 0 0
7.7 0 0
7.8 0 0
7.9 0 0
8 0 0
8.1 0 0
8.2 0 0
8.3 0 0
8.4 0 0
8.5 0 0
8.6 0 0
8.7 0 0
8.8 0 0
8.9 0 0
9 0 0
9.1 0 0
9.2 0 0
9.3 0 0
9.4 0 0
9.5 0 0
9.6 0 0
9.7 0 0
9.8 0 0
9.9 0 0
10 0 0
10.1 0 0
10.2 0 0
10.3 0 0
10.4 0 0
10.5 0 0
10.6 0 0
10.7 0 0
10.8 0 0
10.9 0 0
11 0 0
11.1 0 0
11.2 0 0
11.3 0 0
11.4 0 0
11.5 0 0
11.6 0 0
11.7 0 0
11.8 0 0
11.9 0 0
12 0 0
12.1 0 0
12.2 0 0
12.3 0 0
12.4 0 0
12.5 0 0
12.6 0 0
12.7 0 0
12.8 0 0
12.9 0 0
13 0 0
13.1 0 0
13.2 0 0
13.3 0 0
13.4 0 0
13.5 0 0
13.6 0 0
13.7 0 0
13.8 0 0
13.9 0 0
14 0 0
14.1 0 0
14.2 0 0
14.3 0 0
14.4 0 0
14.5 0 0
14.6 0 0
14.7 0 0
14.8 0 0
14.9 0 0
15 0 0
15.1 0 0
15.2 0 0
15.3 0 0
15.4 0 0
15.5 0 0
15.6 0 0
15.7 0 0
15.8 0 0
15.9 0 0
16 0 0
16.1 0 0
16.2 0 0
16.3 0 0
16.4 0 0
16.5 0 0
16.6 0 0
16.7 0 0
16.8 0 0
16.9 0 0
17 0 0
17.1 0 0
17.2 0 0
17.3 0 0
17.4 0 0
17.5 0 0
17.6 0 0
17.7 0 0
17.8 0 0
17.9 0 0
18 0 0
18.1 0 0
18.2 0 0
18.3 0 0
18.4 0 0
18.5 0 0
18.6 0 0
18.7 0 0
18.8 0 0
18.9 0 0
19 0 0
19.1 0 0
19.2 0 0
19.3 0 0
19.4 0 0
19.5 0 0
19.6 0 0
19.7 0 0
19.8 0 0
19.9 0 0
20 0 0
20.1 0 0
20.2 0 0
20.3 0 0
20.4 0 0
20.5 0 0
20.6 0 0
20.7 0 0
20.8 0 0
20.9 0 0
21 0 0
21.1 0 0
21.2 0 0
21.3 0 0
21.4 0 0
21.5 0 0
21.6 0 0
21.7 0 0
21.8 0 0
21.9 0 0
22 0 0
22.1 0 0
22.2 0 0
22.3 0 0
22.4 0 0
22.5 0 0
22.6 0 0
22.7 0 0
22.8 0 0
22.9 0 0
23 0 0
23.1 0 0
23.2 0 0
23.3 0 0
23.4 0 0
23.5 0 0
23.6 0 0
23.7 0 0
23.8 0 0
23.9 0 0
24 0 0
24.1 0 0
24.2 0 0
24.3 0 0
24.4 0 0
24.5 0 0
24.6 0 0
24.7 0 0
24.8 0 0
24.9 0 0
25 0 0
25.1 0 0
25.2 0 0
25.3 0 0
25.4 0 0
25.5 0 0
25.6 0 0
25.7 0 0
25.8 0 0
25.9 0 0
26 0 0
26.1 0 0
26.2 0 0
26.3 0 0
26.4 0 0
26.5 0 0
26.6 0 0
26.7 0 0
26.8 0 0
26.9 0 0
27 0 0
27.1 0 0
27.2 0 0
27.3 0 0
27.4 0 0
27.5 0 0
27.6 0 0
27.7 0 0
27.8 0 0
27.9 0 0
28 0 0
28.1 0 0
28.2 0 0
28.3 0 0
28.4 0 0
28.5 0 0
28.6 0 0
28.7 0 0
28.8 0 0
28.9 0 0
29 0 0
29.1 0 0
29.2 0 0
29.3 0 0
29.4 0 0
29.5 0 0
29.6 0 0
29.7 0 0
29.8 0 0
29.9 0 0
30 0 0
30.1 0 0
30.2 0 0
30.3 0 0
30.4 0 0
30.5 0 0
30.6 0 0
30.7 0 0
30.8 0 0
30.9 0 0
31 0 0
31.1 0 0
31.2 0 0
31.3 0 0
31.4 0 0
31.5 0 0
31.6 0 0
31.7 0 0
31.8 0 0
31.9 0 0
32 0 0
32.1 0 0
32.2 0 0
32.3 0 0
32.4 0 0
32.5 0 0
32.6 0 0
32.7 0 0
32.8 0 0
32.9 0 0
33 0 0
33.1 0 0
33.2 0 0
33.3 0 0
33.4 0 0
33.5 0 0
33.6 0 0
33.7 0 0
33.8 0 0
33.9 0 0
34 0 0
34.1 0 0
34.2 0 0
34.3 0 0
34.4 0 0
34.5 0 0
34.6 0 0
34.7 0 0
34.8 0 0
34.9 0 0
35 0 0
35.1 0 0
35.2 0 0
35.3 0 0
35.4 0 0
35.5 0 0
35.6 0 0
35.7 0 0
35.8 0 0
35.9 0 0
36 0 0
36.1 0 0
36.2 0 0
36.3 0 0
36.4 0 0
36.5 0 0
36.6 0 0
36.7 0 0
36.8 0 0
36.9 0 0
37 0 0
37.1 0 0
37.2 0 0
37.3 0 0
37.4 0 0
37.5 0 0
37.6 0 0
37.7 0 0
37.8 0 0
37.9 0 0
38 0 0
38.1 0 0
38.2 0 0
38.3 0 0
38.4 0 0
38.5 0 0
38.6 0 0
38.7 0 0
38.8 0 0
38.9 0 0
39 0 0
39.1 0 0
39.2 0 0
39.3 0 0
39.4 0 0
39.5 0 0
39.6 0 0
39.7 0 0
39.8 0 0
39.9 0 0
40 0 0
40.1 0 0
40.2 0 0
40.3 0 0
40.4 0 0
40.5 0 0
40.6 0 0
40.7 0 0
40.8 0 0
40.9 0 0
41 0 0
41.1 0 0
41.2 0 0
41.3 0 0
41.4 0 0
41.5 0 0
41.6 0 0
41.7 0 0
41.8 0 0
41.9 0 0
42 0 0
42.1 0 0
42.2 0 0
42.3 0 0
42.4 0 0
42.5 0 0
42.6 0 0
42.7 0 0
42.8 0 0
42.9 0 0
43 0 0
43.1 0 0
43.2 0 0
43.3 0 0
43.4 0 0
43.5 0 0
43.6 0 0
43.7 0 0
43.8 0 0
43.9 0 0
44 0 0
44.1 0 0
44.2 0 0
44.3 0 0
44.4 0 0
44.5 0 0
44.6 0 0
44.7 0 0
44.8 0 0
44.9 0 0
45 0 0
45.1 0 0
45.2 0 0
45.3 0 0
45.4 0 0
45.5 0 0
45.6 0 0
45.7 0 0
45.8 0 0
45.9 0 0
46 0 0
46.1 0 0
46.2 0 0
46.3 0 0
46.4 0 0
46.5 0 0
46.6 0 0
46.7 0 0
46.8 0 0
46.9 0 0
47 0 0
47.1 0 0
47.2 0 0
47.3 0 0
47.4 0 0
47.5 0 0
47.6 0 0
47.7 0 0
47.8 0 0
47.9 0 0
48 0 0
48.1 0 0
48.2 0 0
48.3 0 0
48.4 0 0
48.5 0 0
48.6 0 0
48.7 0 0
48.8 0 0
48.9 0 0
49 0 0
49.1 0 0
49.2 0 0
49.3 0 0
49.4 0 0
49.5 0 0
49.6 0 0
49.7 0 0
49.8 0 0
49.9 0 0
50 0 0
50.1 0 0
50.2 0 0
50.3 0 0
50.4 0 0
50.5 0 0
50.6 0 0
50.7 0 0
50.8 0 0
50.9 0 0
51 0 0
51.1 0 0
51.2 0 0
51.3 0 0
51.4 0 0
51.5 0 0
51.6 0 0
51.7 0 0
51.8 0 0
51.9 0 0
52 0 0
52.1 0 0
52.2 0 0
52.3 0 0
52.4 0 0
52.5 0 0
52.6 0 0
52.7 0 0
52.8 0 0
52.9 0 0
53 0 0
53.1 0 0
53.2 0 0
53.3 0 0
53.4 0 0
53.5 0 0
53.6 0 0
53.7 0 0
53.8 0 0
53.9 0 0
54 0 0
54.1 0 0
54.2 0 0
54.3 0 0
54.4 0 0
54.5 0 0
54.6 0 0
54.7 0 0
54.8 0 0
54.9 0 0
55 0 0
55.1 0 0
55.2 0 0
55.3 0 0
55.4 0 0
55.5 0 0
55.6 0 0
55.7 0 0
55.8 0 0
55.9 0 0
56 0 0
56.1 0 0
56.2 0 0
56.3 0 0
56.4 0 0
56.5 0 0
56.6 0 0
56.7 0 0
56.8 0 0
56.9 0 0
57 0 0
57.1 0 0
57.2 0 0
57.3 0 0
57.4 0 0
57.5 0 0
57.6 0 0
57.7 0 0
57.8 0 0
57.9 0 0
58 0 0
58.1 0 0
58.2 0 0
58.3 0 0
58.4 0 0
58.5 0 0
58.6 0 0
58.7 0 0
58.8 0 0
58.9 0 0
59 0 0
59.1 0 0
59.2 0 0
59.3 0 0
59.4 0 0
59.5 0 0
59.6 0 0
59.7 0 0
59.8 0 0
59.9 0 0
60 0 0
60.1 0 0
60.2 0 0
60.3 0 0
60.4 0 0
60.5 0 0
60.6 0 0
60.7 0 0
60.8 0 0
60.9 0 0
61 0 0
61.1 0 0
61.2 0 0
61.3 0 0
61.4 0 0
61.5 0 0
61.6 0 0
61.7 0 0
61.8 0 0
61.9 0 0
62 0 0
62.1 0 0
62.2 0 0
62.3 0 0
62.4 0 0
62.5 0 0
62.6 0 0
62.7 0 0
62.8 0 0
62.9 0 0
63 0 0
63.1 0 0
63.2 0 0
63.3 0 0
63.4 0 0
63.5 0 0
63.6 0 0
63.7 0 0
63.8 0 0
63.9 0 0
64 0 0
64.1 0 0
64.2 0 0
64.3 0 0
64.4 0 0
64.5 0 0
64.6 0 0
64.7 0 0
64.8 0 0
64.9 0 0
65 0 0
65.1 0 0
65.2 0 0
65.3 0 0
65.4 0 0
65.5 0 0
65.6 0 0
65.7 0 0
65.8 0 0
65.9 0 0
66 0 0
66.1 0 0
66.2 0 0
66.3 0 0
66.4 0 0
66.5 0 0
66.6 0 0
66.7 0 0
66.8 0 0
66.9 0 0
67 0 0
67.1 0 0
67.2 0 0
67.3 0 0
67.4 0 0
67.5 0 0
67.6 0 0
67.7 0 0
67.8 0 0
67.9 0 0
68 0 0
68.1 0 0
68.2 0 0
68.3 0 0
68.4 0 0
68.5 0 0
68.6 0 0
68.7 0 0
68.8 0 0
68.9 0 0
69 0 0
69.1 0 0
69.2 0 0
69.3 0 0
69.4 0 0
69.5 0 0
69.6 0 0
69.7 0 0
69.8 0 0
69.9 0 0
70 0 0
70.1 0 0
70.2 0 0
70.3 0 0
70.4 0 0
70.5 0 0
70.6 0 0
70.7 0 0
70.8 0 0
70.9 0 0
71 0 0
71.1 0 0
71.2 0 0
71.3 0 0
71.4 0 0
71.5 0 0
71.6 0 0
71.7 0 0
71.8 0 0
71.9 0 0
72 0 0
72.1 0 0
72.2 0 0
72.3 0 0
72.4 0 0
72.5 0 0
72.6 0 0
72.7 0 0
72.8 0 0
72.9 0 0
73 0 0
73.1 0 0
73.2 0 0
73.3 0 0
73.4 0 0
73.5 0 0
73.6 0 0
73.7 0 0
73.8 0 0
73.9 0 0
74 0 0
74.1 0 0
74.2 0 0
74.3 0 0
74.4 0 0
74.5 0 0
74.6 0 0
74.7 0 0
74.8 0 0
74.9 0 0
75 0 0
75.1 0 0
75.2 0 0
75.3 0 0
75.4 0 0
75.5 0 0
75.6 0 0
75.7 0 0
75.8 0 0
75.9 0 0
76 0 0
76.1 0 0
76.2 0 0
76.3 0 0
76.4 0 0
76.5 0 0
76.6 0 0
76.7 0 0
76.8 0 0
76.9 0 0
77 0 0
77.1 0 0
77.2 0 0
77.3 0 0
77.4 0 0
77.5 0 0
77.6 0 0
77.7 0 0
77.8 0 0
77.9 0 0
78 0 0
78.1 0 0
78.2 0 0
78.3 0 0
78.4 0 0
78.5 0 0
78.6 0 0
78.7 0 0
78.8 0 0
78.9 0 0
79 0 0
79.1 0 0
79.2 0 0
79.3 0 0
79.4 0 0
79.5 0 0
79.6 0 0
79.7 0 0
79.8 0 0
79.9 0 0
80 0 0
80.1 0 0
80.2 0 0
80.3 0 0
80.4 0 0
80.5 0 0
80.6 0 0
80.7 0 0
80.8 0 0
80.9 0 0
81 0 0
81.1 0 0
81.2 0 0
81.3 0 0
81.4 0 0
81.5 0 0
81.6 0 0
81.7 0 0
81.8 0 0
81.9 0 0
82 0 0
82.1 0 0
82.2 0 0
82.3 0 0
82.4 0 0
82.5 0 0
82.6 0 0
82.7 0 0
82.8 0 0
82.9 0 0
83 0 0
83.1 0 0
83.2 0 0
83.3 0 0
83.4 0 0
83.5 0 0
83.6 0 0
83.7 0 0
83.8 0 0
83.9 0 0
84 0 0
84.1 0 0
84.2 0 0
84.3 0 0
84.4 0 0
84.5 0 0
84.6 0 0
84.7 0 0
84.8 0 0
84.9 0 0
85 0 0
85.1 0 0
85.2 0 0
85.3 0 0
85.4 0 0
85.5 0 0
85.6 0 0
85.7 0 0
85.8 0 0
85.9 0 0
86 0 0
86.1 0 0
86.2 0 0
86.3 0 0
86.4 0 0
86.5 0 0
86.6 0 0
86.7 0 0
86.8 0 0
86.9 0 0
87 0 0
87.1 0 0
87.2 0 0
87.3 0 0
87.4 0 0
87.5 0 0
87.6 0 0
87.7 0 0
87.8 0 0
87.9 0 0
88 0 0
88.1 0 0
88.2 0 0
88.3 0 0
88.4 0 0
88.5 0 0
88.6 0 0
88.7 0 0
88.8 0 0
88.9 0 0
89 0 0
89.1 0 0
89.2 0 0
89.3 0 0
89.4 0 0
89.5 0 0
89.6 0 0
89.7 0 0
89.8 0 0
89.9 0 0
90 0 0
90.1 0 0
90.2 0 0
90.3 0 0
90.4 0 0
90.5 0 0
90.6 0 0
90.7 0 0
90.8 0 0
90.9 0 0
91 0 0
91.1 0 0
91.2 0 0
91.3 0 0
91.4 0 0
91.5 0 0
91.6 0 0
91.7 0 0
91.8 0 0
91.9 0 0
92 0 0
92.1 0 0
92.2 0 0
92.3 0 0
92.4 0 0
92.5 0 0
92.6 0 0
92.7 0 0
92.8 0 0
92.9 0 0
93 0 0
93.1 0 0
93.2 0 0
93.3 0 0
93.4 0 0
93.5 0 0
93.6 0 0
93.7 0 0
93.8 0 0
93.9 0 0
94 0 0
94.1 0 0
94.2 0 0
94.3 0 0
94.4 0 0
94.5 0 0
94.6 0 0
94.7 0 0
94.8 0 0
94.9 0 0
95 0 0
95.1 0 0
95.2 0 0
95.3 0 0
95.4 0 0
95.5 0 0
95.6 0 0
95.7 0 0
95.8 0 0
95.9 0 0
96 0 0
96.1 0 0
96.2 0 0
96.3 0 0
96.4 0 0
96.5 0 0
96.6 0 0
96.7 0 0
96.8 0 0
96.9 0 0
97 0 0
97.1 0 0
97.2 0 0
97.3 0 0
97.4 0 0
97.5 0 0
97.6 0 0
97.7 0 0
97.8 0 0
97.9 0 0
98 0 0
98.1 0 0
98.2 0 0
98.3 0 0
98.4 0 0
98.5 0 0
98.6 0 0
98.7 0 0
98.8 0 0
98.9 0 0
99 0 0
99.1 0 0
99.2 0 0
99.3 0 0
99.4 0 0
99.5 0 0
99.6 0 0
99.7 0 0
99.8 0 0
99.9 0 0
100 0 0
100.1 0 0
100.2 0 0
100.3 0 0
100.4 0 0
100.5 0 0
100.6 0 0
100.7 0 0
100.8 0 0
100.9 0 0
101 0 0
101.1 0 0
101.2 0 0
101.3 0 0
101.4 0 0
101.5 0 0
101.6 0 0
101.7 0 0
101.8 0 0
101.9 0 0
102 0 0
102.1 0 0
102.2 0 0
102.3 0 0
102.4 0 0
102.5 0 0
102.6 0 0
102.7 0 0
102.8 0 0
102.9 0 0
103 0 0
103.1 0 0
103.2 0 0
103.3 0 0
103.4 0 0
103.5 0 0
103.6 0 0
103.7 0 0
103.8 0 0
103.9 0 0
104 0 0
104.1 0 0
104.2 0 0
104.3 0 0
104.4 0 0
104.5 0 0
104.6 0 0
104.7 0 0
104.8 0 0
104.9 0 0
105 0 0
105.1 0 0
105.2 0 0
105.3 0 0
105.4 0 0
105.5 0 0
105.6 0 0
105.7 0 0
105.8 0 0
105.9 0 0
106 0 0
106.1 0 0
106.2 0 0
106.3 0 0
106.4 0 0
106.5 0 0
106.6 0 0
106.7 0 0
106.8 0 0
106.9 0 0
107 0 0
107.1 0 0
107.2 0 0
107.3 0 0
107.4 0 0
107.5 0 0
107.6 0 0
107.7 0 0
107.8 0 0
107.9 0 0
108 0 0
108.1 0 0
108.2 0 0
108.3 0 0
108.4 0 0
108.5 0 0
108.6 0 0
108.7 0 0
108.8 0 0
108.9 0 0
109 0 0
109.1 0 0
109.2 0 0
109.3 0 0
109.4 0 0
109.5 0 0
109.6 0 0
109.7 0 0
109.8 0 0
109.9 0 0
110 0 0
110.1 0 0
110.2 0 0
110.3 0 0
110.4 0 0
110.5 0 0
110.6 0 0
110.7 0 0
110.8 0 0
110.9 0 0
111 0 0
111.1 0 0
111.2 0 0
111.3 0 0
111.4 0 0
111.5 0 0
111.6 0 0
111.7 0 0
111.8 0 0
111.9 0 0
112 0 0
[...]
POINT_DATA 83304

SCALARS pressure float 1
LOOKUP_TABLE default
0
0
0
0
0
0
0
0
0
0
0
0
0
0
0
0
0
0
0
0
0
0
0
0
0
0
0
0
0
0
0
0
0
0
0
0
0
0
0
0
0
0
0
0
0
0
0
0
0
0
0
0
0
0
0
0
0
0
0
0
0
0
0
0
0
0
0
0
0
0
0
0
0
0
0
0
0
0
0
0
0
0
0
0
0
0
0
0
0
0
0
0
0
0
0
0
0
0
0
0
0
0
0
0
0
0
0
0
0
0
0
0
0
0
0
0
0
0
0
0
0
0
0
0
0
0
0
0
0
0
0
0
0
0
0
0
0
0
0
0
0
0
0
0
0
0
0
0
0
0
0
0
0
0
0
0
0
0
0
0
0
0
0
0
0
0
0
0
0
0
0
0
0
0
0
0
0
0
0
0
0
0
0
0
0
0
0
0
0
0
0
0
0
0
0
0
0
0
0
0
0
0
0
0
0
0
0
0
0
0
0
0
0
0
0
0
0
0
0
0
0
0
0
0
0
0
0
0
0
0
0
0
0
0
0
0
0
0
0
0
0
0
0
0
0
0
0
0
0
0
0
0
0
0
0
0
0
0
0
0
0
0
0
0
0
0
0
0
0
0
0
0
0
0
0
0
0
0
0
0
0
0
0
0
0
0
0
0
0
0
0
0
0
0
0
0
0
0
0
0
0
0
0
0
0
0
0
0
0
0
0
0
0
0
0
0
0
0
0
0
0
0
0
0
0
0
0
0
0
0
0
0
0
0
0
0
0
0
0
0
0
0
0
0
0
0
0
0
0
0
0
0
0
0
0
0
0
0
0
0
0
0
0
0
0
0
0
0
0
0
0
0
0
0
0
0
0
0
0
0
0
0
0
0
0
0
0
0
0
0
0
0
0
0
0
0
0
0
0
0
0
0
0
0
0
0
0
0
0
0
0
0
0
0
0
0
0
0
0
0
0
0
0
0
0
0
0
0
0
0
0
0
0
0
0
0
0
0
0
0
0
0
0
0
0
0
0
0
0
0
0
0
0
0
0
0
0
0
0
0
0
0
0
0
0
0
0
0
0
0
0
0
0
0
0
0
0
0
0
0
0
0
0
0
0
0
0
0
0
0
0
0
0
0
0
0
0
0
0
0
0
0
0
0
0
0
0
0
0
0
0
0
0
0
0
0
0
0
0
0
0
0
0
0
0
0
0
0
0
0
0
0
0
0
0
0
0
0
0
0
0
0
0
0
0
0
0
0
0
0
0
0
0
0
0
0
0
0
0
0
0
0
0
0
0
0
0
0
0
0
0
0
0
0
0
0
0
0
0
0
0
0
0
0
0
0
0
0
0
0
0
0
0
0
0
0
0
0
0
0
0
0
0
0
0
0
0
0
0
0
0
0
0
0
0
0
0
0
0
0
0
0
0
0
0
0
0
0
0
0
0
0
0
0
0
0
0
0
0
0
0
0
0
0
0
0
0
0
0
0
0
0
0
0
0
0
0
0
0
0
0
0
0
0
0
0
0
0
0
0
0
0
0
0
0
0
0
0
0
0
0
0
0
0
0
0
0
0
0
0
0
0
0
0
0
0
0
0
0
0
0
0
0
0
0
0
0
0
0
0
0
0
0
0
0
0
0
0
0
0
0
0
0
0
0
0
0
0
0
0
0
0
0
0
0
0
0
0
0
0
0
0
0
0
0
0
0
0
0
0
0
0
0
0
0
0
0
0
0
0
0
0
0
0
0
0
0
0
0
0
0
0
0
0
0
0
0
0
0
0
0
0
0
0
0
0
0
0
0
0
0
0
0
0
0
0
0
0
0
0
0
0
0
0
0
0
0
0
0
0
0
0
0
0
0
0
0
0
0
0
0
0
0
0
0
0
0
0
0
0
0
0
0
0
0
0
0
0
0
0
0
0
0
0
0
0
0
0
0
0
0
0
0
0
0
0
0
0
0
0
0
0
0
0
0
0
0
0
0
0
0
0
0
0
0
0
0
0
0
0
0
0
0
0
0
0
0
0
0
0
0
0
0
0
0
0
0
0
0
0
0
0
0
0
0
0
0
0
0
0
0
0
0
0
0
0
0
0
0
0
0
0
0
0
0
0
0
0
0
0
0
0
0
0
0
0
0
0
0
0
0
0
0
0
0
0
0
0
0
0
0
0
0
0
0
0
0
0
0
0
0
0
0
0
0
0
0
0
0
0
0
0
0
0
0
0
0
0
0
0
0
0
0
0
0
0
0
0
0
0
0
0
0
0
0
0
0
0
0
0
0
0
0
0
0
0
0
0
0
0
0
0
0
0
0
0
0
0
0
0
0
0
0
0
0
0
0
0
0
0
0
0
0
0
0
0
0
0
0
0
0
0
0
0
0
0
0
0
0
0
0
0
0
0
0
0
0
0
0
0
0
0
0
0
0
0
0
0
0
0
0
0
0
0
0
0
0
0
0
0
0
0
0
0
0
0
0
0
0
0
0
0
0
0
0
0
0
0
0
0
0
0
0
0
0
0
0
0
0
0
0
0
0
0
0
0
0
0
0
0
0
0
0
0
0
0
0
0
0
0
0
0
0
0
0
0
0
0
0
0
0
0
0
0
0
0
0
0
0
0
0
0
0
0
0
0
0
0
0
0
0
0
0
0
0
0
0
0
0
0
0
0
0
0
0
0
0
0
0
0
0
0
0
0
0
0
0
0
0
0
0
0
0
0
0
0
0
0
0
0
0
0
0
0
0
0
0
0
0
0
0
0
0
0
0
0
0
0
0
0
0
0
0
0
0
0
0
0
0
0
0
0
0
0
0
0
0
0
0
0
0
0
0
0
0
0
0
0
0
0
0
0
0
0
0
0
0
0
0
0
0
0
0
0
0
0
0
0
0
0
0
0
0
0
0
0
0
0
0
0
0
0
0
0
0
0
0
0
0
0
0
0
0
0
0
0
0
0
0
0
0
0
0
0
0
0
0
0
0
0
0
0
0
0
0
0
0
0
0
0
0
0
0
0
0
0
0
0
0
0
0
0
0
0
0
0
0
0
0
0
0
0
0
0
0
0
0
0
0
0
0
0
0
0
0
0
0
0
0
0
0
0
0
0
0
0
0
0
0
0
0
0
0
0
0
0
0
0
0
0
0
0
0
0
0
0
0
0
0
0
0
0
0
0
0
0
0
0
0
0
0
0
0
0
0
0
0
0
0
0
0
0
0
0
0
0
0
0
0
0
0
0
0
0
0
0
0
0
0
0
0
0
0
0
0
0
0
0
0
0
0
0
0
0
0
0
0
0
0
0
0
0
0
0
0
0
0
0
0
0
0
0
0
0
0
0
0
0
0
0
0
0
0
0
0
0
0
0
0
0
0
0
0
0
0
0
0
0
0
0
0
0
0
0
0
0
0
0
0
0
0
0
0
0
0
0
0
0
0
0
0
0
0
0
0
0
0
0
0
0
0
0
0
0
0
0
0
0
0
0
0
0
0
0
0
0
0
0
0
0
0
0
0
0
0
0
0
0
0
0
0
0
0
0
0
0
0
0
0
0
0
0
0
0
0
0
0
0
0
0
0
0
0
0
0
0
0
0
0
0
0
0
0
0
0
0
0
0
0
0
0
0
0
0
0
0
0
0
0
0
0
0
0
0.0776415
0.052903
0.0436505
0.0357426
0.03048
0.0271088
0.0248019
0.023116
0.0218008
0.0207277
0.0198235
0.0190436
0.0183596
0.0177519
0.0172066
0.0167134
0.0162643
0.0158532
0.0154749
0.0151254
0.0148012
0.0144993
0.0142174
0.0139533
0.0137051
0.0134714
0.0132506
0.0130416
0.0128434
0.0126549
0.0124753
0.0123039
0.0121401
0.0119833
0.0118328
0.0116884
0.0115494
0.0114156
0.0112866
0.0111621
0.0110418
0.0109254
0.0108128
0.0107037
0.0105979
0.0104952
0.0103955
0.0102987
0.0102045
0.0101129
0.0100238
0.00993702
0.0098525
0.00977015
0.00968989
0.00961163
0.00953532
0.00946088
0.00938825
0.00931738
0.00924821
0.0091807
0.0091148
0.00905046
0.00898765
0.00892632
0.00886645
0.00880799
0.00875091
0.00869519
0.00864078
0.00858768
0.00853584
0.00848523
0.00843585
0.00838765
0.00834062
0.00829474
0.00824997
0.00820631
0.00816371
0.00812218
0.00808167
0.00804218
0.00800368
0.00796615
0.00792958
0.00789393
0.0078592
0.00782537
0.00779242
0.00776034
0.0077291
0.0076987
0.00766913
0.00764037
0.0076124
0.00758522
0.00755881
0.00753315
0.00750822
0.007484
0.00746044
0.00743753
0.00741521
0.00739344
0.00737219
0.00735141
0.00733106
0.00731112
0.00729157
0.00727243
0.00725372
0.00723551
0.00721785
0.00720086
0.00718463
0.00716927
0.00715486
0.00714145
0.00712902
0.0071175
0.00710669
0.00709632
0.00708601
0.00707532
0.00706377
0.00705092
0.00703641
0.0070201
0.00700218
0.00698322
0.00696431
0.00694709
0.00693378
0.00692706
0.00692993
0.00694544
0.00697628
0.0070243
0.00708991
0.00717148
0.00726466
0.00736183
0.0074517
0.0075191
0.00754517
0.00750792
0.00738337
0.00714732
0.00677779
0.00625826
0.00558167
0.00475488
0.00380349
0.00277611
0.00174732
0.000817986
0.000111616
-0.000233462
-7.6029e-05
0.000713728
0.00223981
0.00456888
0.00772238
0.0116767
0.0163655
0.0216837
0.0275006
0.0336704
0.0400302
0.0464039
0.0526263
0.0585482
0.0640034
0.0688007
0.0727818
0.0758838
0.078128
0.079553
0.0801702
0.0799753
0.078982
0.0772408
0.0748343
0.0718647
0.0684415
0.0646747
0.0606708
0.056529
0.0523396
0.0481809
0.0441185
0.0402046
0.0364786
0.0329681
0.0296902
0.0266536
0.0238596
0.0213042
0.0189793
0.0168738
0.0149745
0.0132675
0.011738
0.0103713
0.00915299
0.00806936
0.00710732
0.00625466
0.00550007
0.00483316
0.00424444
0.00372529
0.00326792
0.00286533
0.00251123
0.00219998
0.00192658
0.00168657
0.00147596
0.00129126
0.00112934
0.000987449
0.000863161
0.000754328
0.000659059
0.000575689
0.000502755
0.000438966
0.000383191
0.000334435
0.000291825
0.000254595
0.000222073
0.000193669
0.000168868
0.000147216
0.000128318
0.000111827
9.74379e-05
8.48861e-05
7.39389e-05
6.43928e-05
5.60699e-05
4.88148e-05
4.24916e-05
3.69816e-05
3.21809e-05
2.79989e-05
2.43566e-05
2.11848e-05
1.84232e-05
1.60191e-05
1.39266e-05
1.21055e-05
1.0521e-05
9.1425e-06
7.94342e-06
6.90057e-06
5.99373e-06
5.20529e-06
4.5199e-06
3.92417e-06
3.40646e-06
2.95662e-06
2.56581e-06
2.22634e-06
1.9315e-06
1.67547e-06
1.45316e-06
1.26018e-06
1.09266e-06
9.47283e-07
8.21131e-07
7.11678e-07
6.16728e-07
5.34372e-07
4.62949e-07
4.01016e-07
3.47321e-07
3.00774e-07
2.60429e-07
2.25465e-07
1.95169e-07
1.68921e-07
1.46183e-07
1.26488e-07
1.09432e-07
9.46636e-08
8.18771e-08
7.08082e-08
6.12275e-08
5.29361e-08
4.57614e-08
3.95539e-08
3.4184e-08
2.95392e-08
2.55221e-08
2.20484e-08
1.90451e-08
1.64486e-08
1.42043e-08
1.22647e-08
1.05885e-08
9.14017e-09
7.88895e-09
6.80813e-09
5.87463e-09
5.06846e-09
4.37236e-09
3.77138e-09
3.25258e-09
2.80478e-09
2.41833e-09
2.08485e-09
1.79712e-09
1.54891e-09
1.3348e-09
1.15014e-09
9.90904e-10
8.536e-10
7.35227e-10
6.33188e-10
5.4524e-10
4.69446e-10
4.04136e-10
3.47867e-10
2.99394e-10
2.57641e-10
2.21683e-10
1.90718e-10
1.64056e-10
1.41104e-10
1.21346e-10
1.04342e-10
8.97081e-11
7.71166e-11
6.62837e-11
5.69649e-11
4.89497e-11
4.20567e-11
3.61294e-11
3.10334e-11
2.66525e-11
2.2887e-11
1.96508e-11
1.68699e-11
1.44805e-11
1.24279e-11
1.06647e-11
9.15045e-12
7.85007e-12
6.73355e-12
5.77501e-12
4.95222e-12
4.24606e-12
3.64007e-12
3.12013e-12
2.67407e-12
2.29146e-12
1.96331e-12
1.68193e-12
1.44067e-12
1.23385e-12
1.05657e-12
9.04649e-13
7.74464e-13
6.62917e-13
5.67346e-13
4.8546e-13
4.15295e-13
3.55166e-13
3.03635e-13
2.59478e-13
2.21658e-13
1.89291e-13
1.61625e-13
1.38016e-13
1.17904e-13
1.00804e-13
8.62982e-14
7.40212e-14
6.36551e-14
5.49106e-14
4.75085e-14
4.11624e-14
3.55743e-14
3.04506e-14
2.55426e-14
2.07036e-14
1.59457e-14
1.14706e-14
7.65036e-15
4.94556e-15
3.76764e-15
4.31652e-15
6.44192e-15
9.58165e-15
1.28161e-14
1.50478e-14
1.52746e-14
1.28879e-14
7.90883e-15
1.07839e-15
-6.24686e-15
-1.23886e-14
-1.57675e-14
-1.53415e-14
-1.09383e-14
-3.37656e-15
5.67395e-15
1.40722e-14
1.97338e-14
2.11691e-14
1.7885e-14
1.05377e-14
7.89058e-16
-9.09863e-15
-1.68242e-14
-2.06181e-14
-1.9672e-14
-1.43195e-14
-5.92591e-15
3.47547e-15
1.16987e-14
1.69361e-14
1.81692e-14
1.53654e-14
9.42237e-15
1.89286e-15
-5.42797e-15
-1.094e-14
-1.35923e-14
-1.30751e-14
-9.81978e-15
-4.82408e-15
6.35363e-16
5.32396e-15
8.32324e-15
9.19909e-15
8.03803e-15
5.35982e-15
1.94327e-15
-1.38251e-15
-3.92845e-15
-5.27633e-15
-5.32918e-15
-4.28221e-15
-2.53337e-15
-5.63712e-16
1.18063e-15
2.37851e-15
2.88069e-15
2.71087e-15
2.02887e-15
1.07111e-15
8.59745e-17
-7.21081e-16
-1.22225e-15
-1.3786e-15
-1.23001e-15
-8.70458e-16
-4.17042e-16
1.92944e-17
3.55359e-16
5.46732e-16
5.88214e-16
5.05973e-16
3.44972e-16
1.55415e-16
-1.87039e-17
-1.47033e-16
-2.15697e-16
-2.2606e-16
-1.90672e-16
-1.27945e-16
-5.69861e-17
6.39603e-18
5.19823e-17
7.571e-17
7.88502e-17
6.63329e-17
4.47899e-17
2.0788e-17
-4.40249e-19
-1.565e-17
-2.36614e-17
-2.50068e-17
-2.13403e-17
-1.47952e-17
-7.43374e-18
-8.69949e-19
3.90878e-18
6.54547e-18
7.19363e-18
6.33435e-18
4.58537e-18
2.54195e-18
6.70876e-19
-7.38058e-19
-1.57155e-18
-1.85872e-18
-1.72061e-18
-1.31824e-18
-8.09654e-19
-3.21411e-19
6.48073e-20
3.12717e-19
4.23252e-19
4.22094e-19
3.46705e-19
2.35483e-19
1.20389e-19
2.32569e-20
-4.47576e-20
-8.15649e-20
-9.14052e-20
-8.18881e-20
-6.14408e-20
-3.74949e-20
-1.5493e-20
1.39221e-21
1.20232e-20
1.67771e-20
1.69353e-20
1.41285e-20
9.91937e-21
5.54862e-21
1.83191e-21
-8.29129e-22
-2.36545e-21
-2.92979e-21
-2.78724e-21
-2.22666e-21
-1.50101e-21
-7.96464e-22
-2.25114e-22
1.6651e-22
3.80552e-22
4.48828e-22
4.15899e-22
3.26431e-22
2.17431e-22
1.14832e-22
3.33521e-23
-2.16463e-23
-5.13962e-23
-6.09123e-23
-5.66356e-23
-4.47678e-23
-3.03106e-23
-1.66965e-23
-5.83683e-24
1.5884e-24
5.74726e-24
7.28333e-24
7.01377e-24
5.72113e-24
4.03637e-24
2.39562e-24
1.04776e-24
9.04499e-26
-4.83369e-25
-7.40658e-25
-7.72181e-25
-6.67521e-25
-5.00792e-25
-3.24954e-25
-1.7205e-25
-5.68202e-26
1.83592e-26
5.85884e-26
7.24162e-26
6.89698e-26
5.6223e-26
4.02008e-26
2.48469e-26
1.22889e-26
3.28481e-27
-2.30211e-27
-5.09054e-27
-5.87089e-27
-5.4035e-27
-4.31056e-27
-3.03804e-27
-1.86277e-27
-9.23542e-28
-2.60531e-28
1.47098e-28
3.50653e-28
4.10192e-28
3.81164e-28
3.07795e-28
2.2123e-28
1.40581e-28
7.54017e-29
2.85406e-29
-1.25234e-30
-1.7264e-29
-2.33801e-29
-2.32129e-29
-1.96713e-29
-1.48381e-29
-1.00315e-29
-5.95736e-30
-2.88428e-30
-8.05849e-31
4.3071e-31
1.03326e-30
1.20759e-30
1.12732e-30
9.22806e-31
6.81837e-31
4.56443e-31
2.71946e-31
1.35758e-31
4.47292e-32
-9.39501e-33
-3.63359e-32
-4.51537e-32
-4.32289e-32
-3.59797e-32
-2.70051e-32
-1.8429e-32
-1.12976e-32
-5.94463e-33
-2.28582e-33
-3.27395e-35
1.16659e-33
1.64591e-33
1.6812e-33
1.47878e-33
1.17935e-33
8.69597e-34
5.95994e-34
3.77675e-34
2.16984e-34
1.07283e-34
3.82384e-35
-9.54402e-37
-1.98485e-35
-2.60449e-35
-2.51074e-35
-2.08031e-35
-1.54746e-35
-1.04259e-35
-6.2608e-36
-3.15068e-36
-1.02822e-36
2.82482e-37
9.86083e-37
1.27236e-36
1.29669e-36
1.17529e-36
9.88334e-37
7.86622e-37
5.99028e-37
4.39268e-37
3.11407e-37
2.13953e-37
1.42695e-37
9.24982e-38
5.83609e-38
3.59304e-38
2.1695e-38
1.29778e-38
7.83368e-39
4.90935e-39
3.30225e-39
2.43611e-39
1.96036e-39
1.67355e-39
1.46824e-39
1.29299e-39
1.12754e-39
9.67306e-40
8.14375e-40
6.72601e-40
5.45301e-40
4.34424e-40
3.40486e-40
2.6284e-40
2.0006e-40
1.50291e-40
1.11531e-40
8.18257e-41
5.93909e-41
4.26736e-41
3.03705e-41
2.14197e-41
1.49775e-41
1.03874e-41
7.14786e-42
4.88188e-42
3.31033e-42
2.2292e-42
1.49118e-42
9.91089e-43
6.54621e-43
4.29781e-43
2.8052e-43
1.82058e-43
1.17505e-43
7.54341e-44
4.81725e-44
3.06061e-44
1.93485e-44
1.2172e-44
7.62086e-45
4.74911e-45
2.94597e-45
1.81925e-45
1.11851e-45
6.84708e-46
4.17372e-46
2.53352e-46
1.53158e-46
9.22138e-47
5.52996e-47
3.30326e-47
1.96556e-47
1.16512e-47
6.88059e-48
4.04827e-48
2.37314e-48
1.38615e-48
8.06763e-49
4.67899e-49
2.70425e-49
1.55756e-49
8.94063e-50
5.11481e-50
2.91639e-50
1.65742e-50
9.38866e-51
5.30121e-51
2.98373e-51
1.67406e-51
9.36315e-52
5.22067e-52
2.90199e-52
1.60821e-52
8.88545e-53
4.89459e-53
2.68821e-53
1.47209e-53
8.0378e-54
4.37606e-54
2.37565e-54
1.28601e-54
6.94192e-55
3.73677e-55
2.00587e-55
1.07377e-55
5.73224e-56
3.0518e-56
1.62036e-56
8.58028e-57
4.5314e-57
2.38678e-57
1.25386e-57
6.56973e-58
3.43335e-58
1.78965e-58
9.30468e-59
4.82534e-59
2.49605e-59
1.28791e-59
6.62868e-60
3.4032e-60
1.74291e-60
8.9041e-61
4.53778e-61
2.30696e-61
1.16999e-61
5.91946e-62
2.98772e-62
1.5044e-62
7.55716e-63
3.7873e-63
1.89357e-63
9.4454e-64
4.70057e-64
2.33387e-64
1.15613e-64
5.71401e-65
2.81765e-65
1.38628e-65
6.80507e-66
3.33304e-66
1.62884e-66
7.94237e-67
3.86421e-67
1.87592e-67
9.08688e-68
4.39204e-68
2.11823e-68
1.01939e-68
4.89521e-69
2.34568e-69
1.1216e-69
5.3516e-70
2.54805e-70
1.21064e-70
5.73996e-71
2.71577e-71
1.28225e-71
6.04154e-72
2.8407e-72
1.33293e-72
6.24162e-73
2.91675e-73
1.36024e-73
6.33069e-74
2.94041e-74
1.36298e-74
6.3052e-75
2.91099e-75
1.34127e-75
6.16778e-76
2.83063e-76
1.29653e-76
5.92687e-77
2.70408e-77
1.23131e-77
5.5959e-78
2.53823e-78
1.14909e-78
5.19208e-79
2.34151e-79
1.05395e-79
4.73497e-80
2.12319e-80
9.50254e-81
4.24493e-81
1.89271e-81
8.42336e-82
3.74175e-82
1.65903e-82
7.34224e-83
3.24339e-83
1.43011e-83
6.29417e-84
2.76511e-84
1.21253e-84
5.30739e-85
2.31889e-85
1.01133e-85
4.40272e-86
1.91323e-86
8.29916e-87
3.59355e-87
1.55323e-87
6.70159e-88
2.88634e-88
1.24094e-88
5.3258e-89
2.28169e-89
9.75811e-90
4.16596e-90
1.77544e-90
7.5534e-91
3.20793e-91
1.36005e-91
5.75621e-92
2.43204e-92
1.02579e-92
4.31921e-93
1.81555e-93
7.61854e-94
3.19153e-94
1.33472e-94
5.57246e-95
2.32259e-95
9.66427e-96
4.01455e-96
1.66486e-96
6.89281e-97
2.84899e-97
1.17562e-97
4.84309e-98
1.99187e-98
8.17871e-99
3.35271e-99
1.37213e-99
5.60639e-100
2.28699e-100
9.31404e-101
3.78711e-101
1.53736e-101
6.23074e-102
2.52119e-102
1.01853e-102
4.10813e-103
1.65433e-103
6.65127e-104
2.66991e-104
1.07004e-104
4.28167e-105
1.71057e-105
6.82313e-106
2.71733e-106
1.08049e-106
4.2896e-107
1.70033e-107
6.72938e-108
2.65913e-108
1.04913e-108
4.13283e-109
1.62553e-109
6.38368e-110
2.50311e-110
9.79988e-111
3.83086e-111
1.49523e-111
5.82718e-112
2.2675e-112
8.80999e-113
3.41779e-113
1.32391e-113
5.12056e-114
1.97752e-114
7.62557e-115
2.93611e-115
1.12881e-115
4.33334e-116
1.66103e-116
6.35748e-117
2.42968e-117
9.27189e-118
3.53302e-118
1.34426e-118
5.10718e-119
1.9375e-119
7.33946e-120
2.77621e-120
1.04859e-120
3.9548e-121
1.48941e-121
5.60107e-122
2.10329e-122
7.88679e-123
2.95307e-123
1.10414e-123
4.12237e-124
1.53691e-124
5.72171e-125
2.12708e-125
7.89628e-126
2.92714e-126
1.08354e-126
4.00528e-127
1.47844e-127
5.44958e-128
2.0059e-128
7.37299e-129
2.70625e-129
9.91934e-130
3.6307e-130
1.32706e-130
4.84378e-131
1.76553e-131
6.42629e-132
2.33585e-132
8.47866e-133
3.07333e-133
1.11248e-133
4.0214e-134
1.45166e-134
5.23309e-135
1.88389e-135
6.77265e-136
2.43147e-136
8.71743e-137
3.12117e-137
1.11598e-137
3.9848e-138
1.42092e-138
5.05993e-139
1.79943e-139
6.3906e-140
2.26654e-140
8.02794e-141
2.83964e-141
1.00309e-141
3.53867e-142
1.24669e-142
4.38634e-143
1.54123e-143
5.40828e-144
1.89529e-144
6.63312e-145
2.31839e-145
8.09254e-146
2.82106e-146
9.82131e-147
3.41474e-147
1.18571e-147
4.1118e-148
1.42403e-148
4.9254e-149
1.70137e-149
5.8694e-150
2.02221e-150
6.9582e-151
2.39115e-151
8.20649e-152
2.81287e-152
9.62904e-153
3.292e-153
1.12404e-153
3.83306e-154
1.30544e-154
4.44033e-155
1.50841e-155
5.11768e-156
1.73411e-156
5.86851e-157
1.9835e-157
6.69555e-158
2.25732e-158
7.60072e-159
2.55606e-159
8.585e-160
2.87983e-160
9.64827e-161
3.22842e-161
1.07892e-161
3.6012e-162
1.20051e-162
3.9971e-163
1.32919e-163
4.41457e-164
1.46439e-164
4.85161e-165
1.60539e-165
5.3057e-166
1.75134e-166
5.77385e-167
1.90121e-167
6.25261e-168
2.05382e-168
6.73806e-169
2.20789e-169
7.22592e-170
2.36201e-170
7.71157e-171
2.51465e-171
8.1901e-172
2.66425e-172
8.65643e-173
2.80918e-173
9.10537e-174
2.94778e-174
9.53172e-175
3.07842e-175
9.93039e-176
3.19953e-176
1.02965e-176
3.30959e-177
1.06253e-177
3.4072e-178
1.09128e-178
3.4911e-179
1.11551e-179
3.5602e-180
1.13491e-180
3.61359e-181
1.14923e-181
3.65059e-182
1.15827e-182
3.67072e-183
1.16194e-183
3.67374e-184
1.16019e-184
3.65967e-185
1.15306e-185
3.62874e-186
1.14066e-186
3.58143e-187
1.12319e-187
3.51843e-188
1.10089e-188
3.44063e-189
1.07407e-189
3.34911e-190
1.0431e-190
3.24511e-191
1.0084e-191
3.12998e-192
9.70407e-193
3.00519e-193
9.29599e-194
2.87228e-194
8.86469e-195
2.73281e-195
8.41517e-196
2.58837e-196
7.9524e-197
2.44051e-197
7.48127e-198
2.29077e-198
7.00646e-199
2.14057e-199
6.53241e-200
1.99128e-200
6.06324e-201
1.84414e-201
5.6027e-202
1.70027e-202
5.15414e-203
1.56067e-203
4.72048e-204
1.4262e-204
4.3042e-205
1.29755e-205
3.90732e-206
1.17531e-206
3.53144e-207
1.05992e-207
3.17771e-208
9.51659e-209
2.8469e-209
8.50724e-210
2.53939e-210
7.57178e-211
2.25524e-211
6.70987e-212
1.99418e-212
5.92027e-213
1.75569e-213
5.20098e-214
1.53905e-214
4.54935e-215
1.34332e-215
3.96222e-216
1.16743e-216
3.43603e-217
1.01022e-217
2.96695e-218
8.70439e-219
2.55095e-219
7.46793e-220
2.18392e-220
6.37981e-221
1.86173e-221
5.42706e-222
1.58034e-222
4.59701e-223
1.3358e-223
3.87744e-224
1.12432e-224
3.25669e-225
9.42332e-226
2.72379e-226
7.8648e-227
2.26853e-227
6.53648e-228
1.88143e-228
5.40976e-229
1.55386e-229
4.45854e-230
1.27797e-230
3.65927e-231
1.04668e-231
2.99078e-232
8.53696e-233
2.43428e-233
6.93404e-234
1.97312e-234
5.6088e-235
1.59272e-235
4.51812e-236
1.28035e-236
3.62455e-237
1.02502e-237
2.89576e-238
8.17235e-239
2.30402e-239
6.48905e-240
1.82571e-240
5.13142e-241
1.44079e-241
4.04129e-242
1.13239e-242
3.1698e-243
8.86391e-244
2.47615e-244
6.91019e-245
1.92647e-245
5.3653e-246
1.49275e-246
4.14898e-247
1.15201e-247
3.19548e-248
8.85478e-249
2.45122e-249
6.77877e-250
1.87277e-250
5.16869e-251
1.42509e-251
3.92528e-252
1.0801e-252
2.96911e-253
8.15367e-254
2.23691e-254
6.13071e-255
1.67858e-255
4.59137e-256
1.25462e-256
3.42492e-257
9.34028e-258
2.54472e-258
6.92613e-259
1.88327e-259
5.11573e-260
1.38827e-260
3.76369e-261
1.01936e-261
2.75812e-262
7.45546e-263
2.01331e-263
5.43151e-264
1.46389e-264
3.94157e-265
1.06025e-265
2.8492e-266
7.6492e-267
2.05157e-267
5.49712e-268
1.47151e-268
3.93521e-269
1.05137e-269
2.8062e-270
7.48281e-271
1.99339e-271
5.30516e-272
1.41055e-272
3.74679e-273
9.94288e-274
2.63602e-274
6.98181e-275
1.84744e-275
4.88381e-276
1.28982e-276
3.40319e-277
8.97075e-278
2.36242e-278
6.21541e-279
1.63369e-279
4.29e-280
1.12547e-280
2.94982e-281
7.72406e-282
2.02062e-282
5.28096e-283
1.37889e-283
3.59698e-284
9.37423e-285
2.44075e-285
6.34897e-286
1.64996e-286
4.28387e-287
1.1112e-287
2.87964e-288
7.45553e-289
1.92847e-289
4.98356e-290
1.28665e-290
3.31877e-291
8.5524e-292
2.20188e-292
5.66365e-293
1.45544e-293
3.73671e-294
9.58476e-295
2.45624e-295
6.28864e-296
1.60858e-296
4.11078e-297
1.04956e-297
2.67724e-298
6.82288e-299
1.73719e-299
4.41905e-300
1.12308e-300
2.85163e-301
7.23398e-302
1.83342e-302
4.64249e-303
1.17447e-303
2.96849e-304
7.49604e-305
1.89118e-305
4.76691e-306
1.20046e-306
3.02037e-307
7.59239e-308
1.90679e-308
4.78446e-309
1.19942e-309
3.00409e-310
7.51731e-311
1.8794e-311
4.69445e-312
1.17154e-312
2.92105e-313
7.27662e-314
1.81104e-314
4.50337e-315
1.11881e-315
2.77706e-316
6.88691e-317
1.70638e-317
4.22413e-318
1.04475e-318
2.58169e-319
6.37443e-320
1.57212e-320
3.87347e-321
9.48606e-322
2.32211e-322
5.43472e-323
4.94066e-324
0
0
0
0
0
0
0
0
0
0
0
0
0
0
0
0
0
0
0
0
0
0
0
0
0
0
0
0
0
0
0
0
0
0
0
0
0
0
0
0
0
0
0
0
0
0
0
0
0
0
0
0
0
0
0
0
0
0
0
0
0
0
0
0
0
0
0
0
0
0
0
0
0
0
0
0
0
0
0
0
0
0
0
0
0
0
0
0
0
0
0
0
0
0
0
0
0
0
0
0
0
0
0
0
0
0
0
0
0
0
0
0
0
0
0
0
0
0
0
0
0
0
0
0
0
0
0
0
0
0
0
0
0
0
0
0
0
0
0
0
0
0
0
0
0
0
0
0
0
0
0
0
0
0
0
0
0
0
0
0
0
0
0
0
0
0
0
0
0
0
0
0
0
0
0
0
0
0
0
0
0
0
0
0
0
0
0
0
0
0
0
0
0
0
0
0
0
0
0
0
0
0
0
0
0
0
0
0
0
0
0
0
0
0
0
0
0
0
0
0
0
0
0
0
0
0
0
0
0
0
0
0
0
0
0
0
0
0
0
0
0
0
0
0
0
0
0
0
0
0
0
0
0
0
0
0
0
0
0
0
0
0
0
0
0
0
0
0
0
0
0
0
0
0
0
0
0
0.062787
0.0345542
0.0299574
0.025277
0.0221391
0.0200069
0.0184495
0.0172639
0.0163155
0.0155312
0.0148652
0.0142884
0.013781
0.0133294
0.0129237