# vtk DataFile Version 2.0
FlowField
ASCII
DATASET STRUCTURED_GRID
DIMENSIONS 1602 1 52
POINTS 83304 float
0 0 0
0.1 0 0
0.2 0 0
0.3 0 0
0.4 0 0
0.5 0 0
0.6 0 0
0.7 0 0
0.8 0 0
0.9 0 0
1 0 0
1.1 0 0
1.2 0 0
1.3 0 0
1.4 0 0
1.5 0 0
1.6 0 0
1.7 0 0
1.8 0 0
1.9 0 0
2 0 0
2.1 0 0
2.2 0 0
2.3 0 0
2.4 0 0
2.5 0 0
2.6 0 0
2.7 0 0
2.8 0 0
2.9 0 0
3 0 0
3.1 0 0
3.2 0 0
3.3 0 0
3.4 0 0
3.5 0 0
3.6 0 0
3.7 0 0
3.8 0 0
3.9 0 0
4 0 0
4.1 0 0
4.2 0 0
4.3 0 0
4.4 0 0
4.5 0 0
4.6 0 0
4.7 0 0
4.8 0 0
4.9 0 0
5 0 0
5.1 0 0
5.2 0 0
5.3 0 0
5.4 0 0
5.5 0 0
5.6 0 0
5.7 0 0
5.8 0 0
5.9 0 0
6 0 0
6.1 0 0
6.2 0 0
6.3 0 0
6.4 0 0
6.5 0 0
6.6 0 0
6.7 0 0
6.8 0 0
6.9 0 0
7 0 0
7.1 0 0
7.2 0 0
7.3 0 0
7.4 0 0
7.5 0 0
7.6 0 0
7.7 0 0
7.8 0 0
7.9 0 0
8 0 0
8.1 0 0
8.2 0 0
8.3 0 0
8.4 0 0
8.5 0 0
8.6 0 0
8.7 0 0
8.8 0 0
8.9 0 0
9 0 0
9.1 0 0
9.2 0 0
9.3 0 0
9.4 0 0
9.5 0 0
9.6 0 0
9.7 0 0
9.8 0 0
9.9 0 0
10 0 0
10.1 0 0
10.2 0 0
10.3 0 0
10.4 0 0
10.5 0 0
10.6 0 0
10.7 0 0
10.8 0 0
10.9 0 0
11 0 0
11.1 0 0
11.2 0 0
11.3 0 0
11.4 0 0
11.5 0 0
11.6 0 0
11.7 0 0
11.8 0 0
11.9 0 0
12 0 0
12.1 0 0
12.2 0 0
12.3 0 0
12.4 0 0
12.5 0 0
12.6 0 0
12.7 0 0
12.8 0 0
12.9 0 0
13 0 0
13.1 0 0
13.2 0 0
13.3 0 0
13.4 0 0
13.5 0 0
13.6 0 0
13.7 0 0
13.8 0 0
13.9 0 0
14 0 0
14.1 0 0
14.2 0 0
14.3 0 0
14.4 0 0
14.5 0 0
14.6 0 0
14.7 0 0
14.8 0 0
14.9 0 0
15 0 0
15.1 0 0
15.2 0 0
15.3 0 0
15.4 0 0
15.5 0 0
15.6 0 0
15.7 0 0
15.8 0 0
15.9 0 0
16 0 0
16.1 0 0
16.2 0 0
16.3 0 0
16.4 0 0
16.5 0 0
16.6 0 0
16.7 0 0
16.8 0 0
16.9 0 0
17 0 0
17.1 0 0
17.2 0 0
17.3 0 0
17.4 0 0
17.5 0 0
17.6 0 0
17.7 0 0
17.8 0 0
17.9 0 0
18 0 0
18.1 0 0
18.2 0 0
18.3 0 0
18.4 0 0
18.5 0 0
18.6 0 0
18.7 0 0
18.8 0 0
18.9 0 0
19 0 0
19.1 0 0
19.2 0 0
19.3 0 0
19.4 0 0
19.5 0 0
19.6 0 0
19.7 0 0
19.8 0 0
19.9 0 0
20 0 0
20.1 0 0
20.2 0 0
20.3 0 0
20.4 0 0
20.5 0 0
20.6 0 0
20.7 0 0
20.8 0 0
20.9 0 0
21 0 0
21.1 0 0
21.2 0 0
21.3 0 0
21.4 0 0
21.5 0 0
21.6 0 0
21.7 0 0
21.8 0 0
21.9 0 0
22 0 0
22.1 0 0
22.2 0 0
22.3 0 0
22.4 0 0
22.5 0 0
22.6 0 0
22.7 0 0
22.8 0 0
22.9 0 0
23 0 0
23.1 0 0
23.2 0 0
23.3 0 0
23.4 0 0
23.5 0 0
23.6 0 0
23.7 0 0
23.8 0 0
23.9 0 0
24 0 0
24.1 0 0
24.2 0 0
24.3 0 0
24.4 0 0
24.5 0 0
24.6 0 0
24.7 0 0
24.8 0 0
24.9 0 0
25 0 0
25.1 0 0
25.2 0 0
25.3 0 0
25.4 0 0
25.5 0 0
25.6 0 0
25.7 0 0
25.8 0 0
25.9 0 0
26 0 0
26.1 0 0
26.2 0 0
26.3 0 0
26.4 0 0
26.5 0 0
26.6 0 0
26.7 0 0
26.8 0 0
26.9 0 0
27 0 0
27.1 0 0
27.2 0 0
27.3 0 0
27.4 0 0
27.5 0 0
27.6 0 0
27.7 0 0
27.8 0 0
27.9 0 0
28 0 0
28.1 0 0
28.2 0 0
28.3 0 0
28.4 0 0
28.5 0 0
28.6 0 0
28.7 0 0
28.8 0 0
28.9 0 0
29 0 0
29.1 0 0
29.2 0 0
29.3 0 0
29.4 0 0
29.5 0 0
29.6 0 0
29.7 0 0
29.8 0 0
29.9 0 0
30 0 0
30.1 0 0
30.2 0 0
30.3 0 0
30.4 0 0
30.5 0 0
30.6 0 0
30.7 0 0
30.8 0 0
30.9 0 0
31 0 0
31.1 0 0
31.2 0 0
31.3 0 0
31.4 0 0
31.5 0 0
31.6 0 0
31.7 0 0
31.8 0 0
31.9 0 0
32 0 0
32.1 0 0
32.2 0 0
32.3 0 0
32.4 0 0
32.5 0 0
32.6 0 0
32.7 0 0
32.8 0 0
32.9 0 0
33 0 0
33.1 0 0
33.2 0 0
33.3 0 0
33.4 0 0
33.5 0 0
33.6 0 0
33.7 0 0
33.8 0 0
33.9 0 0
34 0 0
34.1 0 0
34.2 0 0
34.3 0 0
34.4 0 0
34.5 0 0
34.6 0 0
34.7 0 0
34.8 0 0
34.9 0 0
35 0 0
35.1 0 0
35.2 0 0
35.3 0 0
35.4 0 0
35.5 0 0
35.6 0 0
35.7 0 0
35.8 0 0
35.9 0 0
36 0 0
36.1 0 0
36.2 0 0
36.3 0 0
36.4 0 0
36.5 0 0
36.6 0 0
36.7 0 0
36.8 0 0
36.9 0 0
37 0 0
37.1 0 0
37.2 0 0
37.3 0 0
37.4 0 0
37.5 0 0
37.6 0 0
37.7 0 0
37.8 0 0
37.9 0 0
38 0 0
38.1 0 0
38.2 0 0
38.3 0 0
38.4 0 0
38.5 0 0
38.6 0 0
38.7 0 0
38.8 0 0
38.9 0 0
39 0 0
39.1 0 0
39.2 0 0
39.3 0 0
39.4 0 0
39.5 0 0
39.6 0 0
39.7 0 0
39.8 0 0
39.9 0 0
40 0 0
40.1 0 0
40.2 0 0
40.3 0 0
40.4 0 0
40.5 0 0
40.6 0 0
40.7 0 0
40.8 0 0
40.9 0 0
41 0 0
41.1 0 0
41.2 0 0
41.3 0 0
41.4 0 0
41.5 0 0
41.6 0 0
41.7 0 0
41.8 0 0
41.9 0 0
42 0 0
42.1 0 0
42.2 0 0
42.3 0 0
42.4 0 0
42.5 0 0
42.6 0 0
42.7 0 0
42.8 0 0
42.9 0 0
43 0 0
43.1 0 0
43.2 0 0
43.3 0 0
43.4 0 0
43.5 0 0
43.6 0 0
43.7 0 0
43.8 0 0
43.9 0 0
44 0 0
44.1 0 0
44.2 0 0
44.3 0 0
44.4 0 0
44.5 0 0
44.6 0 0
44.7 0 0
44.8 0 0
44.9 0 0
45 0 0
45.1 0 0
45.2 0 0
45.3 0 0
45.4 0 0
45.5 0 0
45.6 0 0
45.7 0 0
45.8 0 0
45.9 0 0
46 0 0
46.1 0 0
46.2 0 0
46.3 0 0
46.4 0 0
46.5 0 0
46.6 0 0
46.7 0 0
46.8 0 0
46.9 0 0
47 0 0
47.1 0 0
47.2 0 0
47.3 0 0
47.4 0 0
47.5 0 0
47.6 0 0
47.7 0 0
47.8 0 0
47.9 0 0
48 0 0
48.1 0 0
48.2 0 0
48.3 0 0
48.4 0 0
48.5 0 0
48.6 0 0
48.7 0 0
48.8 0 0
48.9 0 0
49 0 0
49.1 0 0
49.2 0 0
49.3 0 0
49.4 0 0
49.5 0 0
49.6 0 0
49.7 0 0
49.8 0 0
49.9 0 0
50 0 0
50.1 0 0
50.2 0 0
50.3 0 0
50.4 0 0
50.5 0 0
50.6 0 0
50.7 0 0
50.8 0 0
50.9 0 0
51 0 0
51.1 0 0
51.2 0 0
51.3 0 0
51.4 0 0
51.5 0 0
51.6 0 0
51.7 0 0
51.8 0 0
51.9 0 0
52 0 0
52.1 0 0
52.2 0 0
52.3 0 0
52.4 0 0
52.5 0 0
52.6 0 0
52.7 0 0
52.8 0 0
52.9 0 0
53 0 0
53.1 0 0
53.2 0 0
53.3 0 0
53.4 0 0
53.5 0 0
53.6 0 0
53.7 0 0
53.8 0 0
53.9 0 0
54 0 0
54.1 0 0
54.2 0 0
54.3 0 0
54.4 0 0
54.5 0 0
54.6 0 0
54.7 0 0
54.8 0 0
54.9 0 0
55 0 0
55.1 0 0
55.2 0 0
55.3 0 0
55.4 0 0
55.5 0 0
55.6 0 0
55.7 0 0
55.8 0 0
55.9 0 0
56 0 0
56.1 0 0
56.2 0 0
56.3 0 0
56.4 0 0
56.5 0 0
56.6 0 0
56.7 0 0
56.8 0 0
56.9 0 0
57 0 0
57.1 0 0
57.2 0 0
57.3 0 0
57.4 0 0
57.5 0 0
57.6 0 0
57.7 0 0
57.8 0 0
57.9 0 0
58 0 0
58.1 0 0
58.2 0 0
58.3 0 0
58.4 0 0
58.5 0 0
58.6 0 0
58.7 0 0
58.8 0 0
58.9 0 0
59 0 0
59.1 0 0
59.2 0 0
59.3 0 0
59.4 0 0
59.5 0 0
59.6 0 0
59.7 0 0
59.8 0 0
59.9 0 0
60 0 0
60.1 0 0
60.2 0 0
60.3 0 0
60.4 0 0
60.5 0 0
60.6 0 0
60.7 0 0
60.8 0 0
60.9 0 0
61 0 0
61.1 0 0
61.2 0 0
61.3 0 0
61.4 0 0
61.5 0 0
61.6 0 0
61.7 0 0
61.8 0 0
61.9 0 0
62 0 0
62.1 0 0
62.2 0 0
62.3 0 0
62.4 0 0
62.5 0 0
62.6 0 0
62.7 0 0
62.8 0 0
62.9 0 0
63 0 0
63.1 0 0
63.2 0 0
63.3 0 0
63.4 0 0
63.5 0 0
63.6 0 0
63.7 0 0
63.8 0 0
63.9 0 0
64 0 0
64.1 0 0
64.2 0 0
64.3 0 0
64.4 0 0
64.5 0 0
64.6 0 0
64.7 0 0
64.8 0 0
64.9 0 0
65 0 0
65.1 0 0
65.2 0 0
65.3 0 0
65.4 0 0
65.5 0 0
65.6 0 0
65.7 0 0
65.8 0 0
65.9 0 0
66 0 0
66.1 0 0
66.2 0 0
66.3 0 0
66.4 0 0
66.5 0 0
66.6 0 0
66.7 0 0
66.8 0 0
66.9 0 0
67 0 0
67.1 0 0
67.2 0 0
67.3 0 0
67.4 0 0
67.5 0 0
67.6 0 0
67.7 0 0
67.8 0 0
67.9 0 0
68 0 0
68.1 0 0
68.2 0 0
68.3 0 0
68.4 0 0
68.5 0 0
68.6 0 0
68.7 0 0
68.8 0 0
68.9 0 0
69 0 0
69.1 0 0
69.2 0 0
69.3 0 0
69.4 0 0
69.5 0 0
69.6 0 0
69.7 0 0
69.8 0 0
69.9 0 0
70 0 0
70.1 0 0
70.2 0 0
70.3 0 0
70.4 0 0
70.5 0 0
70.6 0 0
70.7 0 0
70.8 0 0
70.9 0 0
71 0 0
71.1 0 0
71.2 0 0
71.3 0 0
71.4 0 0
71.5 0 0
71.6 0 0
71.7 0 0
71.8 0 0
71.9 0 0
72 0 0
72.1 0 0
72.2 0 0
72.3 0 0
72.4 0 0
72.5 0 0
72.6 0 0
72.7 0 0
72.8 0 0
72.9 0 0
73 0 0
73.1 0 0
73.2 0 0
73.3 0 0
73.4 0 0
73.5 0 0
73.6 0 0
73.7 0 0
73.8 0 0
73.9 0 0
74 0 0
74.1 0 0
74.2 0 0
74.3 0 0
74.4 0 0
74.5 0 0
74.6 0 0
74.7 0 0
74.8 0 0
74.9 0 0
75 0 0
75.1 0 0
75.2 0 0
75.3 0 0
75.4 0 0
75.5 0 0
75.6 0 0
75.7 0 0
75.8 0 0
75.9 0 0
76 0 0
76.1 0 0
76.2 0 0
76.3 0 0
76.4 0 0
76.5 0 0
76.6 0 0
76.7 0 0
76.8 0 0
76.9 0 0
77 0 0
77.1 0 0
77.2 0 0
77.3 0 0
77.4 0 0
77.5 0 0
77.6 0 0
77.7 0 0
77.8 0 0
77.9 0 0
78 0 0
78.1 0 0
78.2 0 0
78.3 0 0
78.4 0 0
78.5 0 0
78.6 0 0
78.7 0 0
78.8 0 0
78.9 0 0
79 0 0
79.1 0 0
79.2 0 0
79.3 0 0
79.4 0 0
79.5 0 0
79.6 0 0
79.7 0 0
79.8 0 0
79.9 0 0
80 0 0
80.1 0 0
80.2 0 0
80.3 0 0
80.4 0 0
80.5 0 0
80.6 0 0
80.7 0 0
80.8 0 0
80.9 0 0
81 0 0
81.1 0 0
81.2 0 0
81.3 0 0
81.4 0 0
81.5 0 0
81.6 0 0
81.7 0 0
81.8 0 0
81.9 0 0
82 0 0
82.1 0 0
82.2 0 0
82.3 0 0
82.4 0 0
82.5 0 0
82.6 0 0
82.7 0 0
82.8 0 0
82.9 0 0
83 0 0
83.1 0 0
83.2 0 0
83.3 0 0
83.4 0 0
83.5 0 0
83.6 0 0
83.7 0 0
83.8 0 0
83.9 0 0
84 0 0
84.1 0 0
84.2 0 0
84.3 0 0
84.4 0 0
84.5 0 0
84.6 0 0
84.7 0 0
84.8 0 0
84.9 0 0
85 0 0
85.1 0 0
85.2 0 0
85.3 0 0
85.4 0 0
85.5 0 0
85.6 0 0
85.7 0 0
85.8 0 0
85.9 0 0
86 0 0
86.1 0 0
86.2 0 0
86.3 0 0
86.4 0 0
86.5 0 0
86.6 0 0
86.7 0 0
86.8 0 0
86.9 0 0
87 0 0
87.1 0 0
87.2 0 0
87.3 0 0
87.4 0 0
87.5 0 0
87.6 0 0
87.7 0 0
87.8 0 0
87.9 0 0
88 0 0
88.1 0 0
88.2 0 0
88.3 0 0
88.4 0 0
88.5 0 0
88.6 0 0
88.7 0 0
88.8 0 0
88.9 0 0
89 0 0
89.1 0 0
89.2 0 0
89.3 0 0
89.4 0 0
89.5 0 0
89.6 0 0
89.7 0 0
89.8 0 0
89.9 0 0
90 0 0
90.1 0 0
90.2 0 0
90.3 0 0
90.4 0 0
90.5 0 0
90.6 0 0
90.7 0 0
90.8 0 0
90.9 0 0
91 0 0
91.1 0 0
91.2 0 0
91.3 0 0
91.4 0 0
91.5 0 0
91.6 0 0
91.7 0 0
91.8 0 0
91.9 0 0
92 0 0
92.1 0 0
92.2 0 0
92.3 0 0
92.4 0 0
92.5 0 0
92.6 0 0
92.7 0 0
92.8 0 0
92.9 0 0
93 0 0
93.1 0 0
93.2 0 0
93.3 0 0
93.4 0 0
93.5 0 0
93.6 0 0
93.7 0 0
93.8 0 0
93.9 0 0
94 0 0
94.1 0 0
94.2 0 0
94.3 0 0
94.4 0 0
94.5 0 0
94.6 0 0
94.7 0 0
94.8 0 0
94.9 0 0
95 0 0
95.1 0 0
95.2 0 0
95.3 0 0
95.4 0 0
95.5 0 0
95.6 0 0
95.7 0 0
95.8 0 0
95.9 0 0
96 0 0
96.1 0 0
96.2 0 0
96.3 0 0
96.4 0 0
96.5 0 0
96.6 0 0
96.7 0 0
96.8 0 0
96.9 0 0
97 0 0
97.1 0 0
97.2 0 0
97.3 0 0
97.4 0 0
97.5 0 0
97.6 0 0
97.7 0 0
97.8 0 0
97.9 0 0
98 0 0
98.1 0 0
98.2 0 0
98.3 0 0
98.4 0 0
98.5 0 0
98.6 0 0
98.7 0 0
98.8 0 0
98.9 0 0
99 0 0
99.1 0 0
99.2 0 0
99.3 0 0
99.4 0 0
99.5 0 0
99.6 0 0
99.7 0 0
99.8 0 0
99.9 0 0
100 0 0
100.1 0 0
100.2 0 0
100.3 0 0
100.4 0 0
100.5 0 0
100.6 0 0
100.7 0 0
100.8 0 0
100.9 0 0
101 0 0
101.1 0 0
101.2 0 0
101.3 0 0
101.4 0 0
101.5 0 0
101.6 0 0
101.7 0 0
101.8 0 0
101.9 0 0
102 0 0
102.1 0 0
102.2 0 0
102.3 0 0
102.4 0 0
102.5 0 0
102.6 0 0
102.7 0 0
102.8 0 0
102.9 0 0
103 0 0
103.1 0 0
103.2 0 0
103.3 0 0
103.4 0 0
103.5 0 0
103.6 0 0
103.7 0 0
103.8 0 0
103.9 0 0
104 0 0
104.1 0 0
104.2 0 0
104.3 0 0
104.4 0 0
104.5 0 0
104.6 0 0
104.7 0 0
104.8 0 0
104.9 0 0
105 0 0
105.1 0 0
105.2 0 0
105.3 0 0
105.4 0 0
105.5 0 0
105.6 0 0
105.7 0 0
105.8 0 0
105.9 0 0
106 0 0
106.1 0 0
106.2 0 0
106.3 0 0
106.4 0 0
106.5 0 0
106.6 0 0
106.7 0 0
106.8 0 0
106.9 0 0
107 0 0
107.1 0 0
107.2 0 0
107.3 0 0
107.4 0 0
107.5 0 0
107.6 0 0
107.7 0 0
107.8 0 0
107.9 0 0
108 0 0
108.1 0 0
108.2 0 0
108.3 0 0
108.4 0 0
108.5 0 0
108.6 0 0
108.7 0 0
108.8 0 0
108.9 0 0
109 0 0
109.1 0 0
109.2 0 0
109.3 0 0
109.4 0 0
109.5 0 0
109.6 0 0
109.7 0 0
109.8 0 0
109.9 0 0
110 0 0
110.1 0 0
110.2 0 0
110.3 0 0
110.4 0 0
110.5 0 0
110.6 0 0
110.7 0 0
110.8 0 0
110.9 0 0
111 0 0
111.1 0 0
111.2 0 0
111.3 0 0
111.4 0 0
111.5 0 0
111.6 0 0
111.7 0 0
111.8 0 0
111.9 0 0
112 0 0
[...]
POINT_DATA 83304

SCALARS pressure float 1
LOOKUP_TABLE default
0
0
0
0
0
0
0
0
0
0
0
0
0
0
0
0
0
0
0
0
0
0
0
0
0
0
0
0
0
0
0
0
0
0
0
0
0
0
0
0
0
0
0
0
0
0
0
0
0
0
0
0
0
0
0
0
0
0
0
0
0
0
0
0
0
0
0
0
0
0
0
0
0
0
0
0
0
0
0
0
0
0
0
0
0
0
0
0
0
0
0
0
0
0
0
0
0
0
0
0
0
0
0
0
0
0
0
0
0
0
0
0
0
0
0
0
0
0
0
0
0
0
0
0
0
0
0
0
0
0
0
0
0
0
0
0
0
0
0
0
0
0
0
0
0
0
0
0
0
0
0
0
0
0
0
0
0
0
0
0
0
0
0
0
0
0
0
0
0
0
0
0
0
0
0
0
0
0
0
0
0
0
0
0
0
0
0
0
0
0
0
0
0
0
0
0
0
0
0
0
0
0
0
0
0
0
0
0
0
0
0
0
0
0
0
0
0
0
0
0
0
0
0
0
0
0
0
0
0
0
0
0
0
0
0
0
0
0
0
0
0
0
0
0
0
0
0
0
0
0
0
0
0
0
0
0
0
0
0
0
0
0
0
0
0
0
0
0
0
0
0
0
0
0
0
0
0
0
0
0
0
0
0
0
0
0
0
0
0
0
0
0
0
0
0
0
0
0
0
0
0
0
0
0
0
0
0
0
0
0
0
0
0
0
0
0
0
0
0
0
0
0
0
0
0
0
0
0
0
0
0
0
0
0
0
0
0
0
0
0
0
0
0
0
0
0
0
0
0
0
0
0
0
0
0
0
0
0
0
0
0
0
0
0
0
0
0
0
0
0
0
0
0
0
0
0
0
0
0
0
0
0
0
0
0
0
0
0
0
0
0
0
0
0
0
0
0
0
0
0
0
0
0
0
0
0
0
0
0
0
0
0
0
0
0
0
0
0
0
0
0
0
0
0
0
0
0
0
0
0
0
0
0
0
0
0
0
0
0
0
0
0
0
0
0
0
0
0
0
0
0
0
0
0
0
0
0
0
0
0
0
0
0
0
0
0
0
0
0
0
0
0
0
0
0
0
0
0
0
0
0
0
0
0
0
0
0
0
0
0
0
0
0
0
0
0
0
0
0
0
0
0
0
0
0
0
0
0
0
0
0
0
0
0
0
0
0
0
0
0
0
0
0
0
0
0
0
0
0
0
0
0
0
0
0
0
0
0
0
0
0
0
0
0
0
0
0
0
0
0
0
0
0
0
0
0
0
0
0
0
0
0
0
0
0
0
0
0
0
0
0
0
0
0
0
0
0
0
0
0
0
0
0
0
0
0
0
0
0
0
0
0
0
0
0
0
0
0
0
0
0
0
0
0
0
0
0
0
0
0
0
0
0
0
0
0
0
0
0
0
0
0
0
0
0
0
0
0
0
0
0
0
0
0
0
0
0
0
0
0
0
0
0
0
0
0
0
0
0
0
0
0
0
0
0
0
0
0
0
0
0
0
0
0
0
0
0
0
0
0
0
0
0
0
0
0
0
0
0
0
0
0
0
0
0
0
0
0
0
0
0
0
0
0
0
0
0
0
0
0
0
0
0
0
0
0
0
0
0
0
0
0
0
0
0
0
0
0
0
0
0
0
0
0
0
0
0
0
0
0
0
0
0
0
0
0
0
0
0
0
0
0
0
0
0
0
0
0
0
0
0
0
0
0
0
0
0
0
0
0
0
0
0
0
0
0
0
0
0
0
0
0
0
0
0
0
0
0
0
0
0
0
0
0
0
0
0
0
0
0
0
0
0
0
0
0
0
0
0
0
0
0
0
0
0
0
0
0
0
0
0
0
0
0
0
0
0
0
0
0
0
0
0
0
0
0
0
0
0
0
0
0
0
0
0
0
0
0
0
0
0
0
0
0
0
0
0
0
0
0
0
0
0
0
0
0
0
0
0
0
0
0
0
0
0
0
0
0
0
0
0
0
0
0
0
0
0
0
0
0
0
0
0
0
0
0
0
0
0
0
0
0
0
0
0
0
0
0
0
0
0
0
0
0
0
0
0
0
0
0
0
0
0
0
0
0
0
0
0
0
0
0
0
0
0
0
0
0
0
0
0
0
0
0
0
0
0
0
0
0
0
0
0
0
0
0
0
0
0
0
0
0
0
0
0
0
0
0
0
0
0
0
0
0
0
0
0
0
0
0
0
0
0
0
0
0
0
0
0
0
0
0
0
0
0
0
0
0
0
0
0
0
0
0
0
0
0
0
0
0
0
0
0
0
0
0
0
0
0
0
0
0
0
0
0
0
0
0
0
0
0
0
0
0
0
0
0
0
0
0
0
0
0
0
0
0
0
0
0
0
0
0
0
0
0
0
0
0
0
0
0
0
0
0
0
0
0
0
0
0
0
0
0
0
0
0
0
0
0
0
0
0
0
0
0
0
0
0
0
0
0
0
0
0
0
0
0
0
0
0
0
0
0
0
0
0
0
0
0
0
0
0
0
0
0
0
0
0
0
0
0
0
0
0
0
0
0
0
0
0
0
0
0
0
0
0
0
0
0
0
0
0
0
0
0
0
0
0
0
0
0
0
0
0
0
0
0
0
0
0
0
0
0
0
0
0
0
0
0
0
0
0
0
0
0
0
0
0
0
0
0
0
0
0
0
0
0
0
0
0
0
0
0
0
0
0
0
0
0
0
0
0
0
0
0
0
0
0
0
0
0
0
0
0
0
0
0
0
0
0
0
0
0
0
0
0
0
0
0
0
0
0
0
0
0
0
0
0
0
0
0
0
0
0
0
0
0
0
0
0
0
0
0
0
0
0
0
0
0
0
0
0
0
0
0
0
0
0
0
0
0
0
0
0
0
0
0
0
0
0
0
0
0
0
0
0
0
0
0
0
0
0
0
0
0
0
0
0
0
0
0
0
0
0
0
0
0
0
0
0
0
0
0
0
0
0
0
0
0
0
0
0
0
0
0
0
0
0
0
0
0
0
0
0
0
0
0
0
0
0
0
0
0
0
0
0
0
0
0
0
0
0
0
0
0
0
0
0
0
0
0
0
0
0
0
0
0
0
0
0
0
0
0
0
0
0
0
0
0
0
0
0
0
0
0
0
0
0
0
0
0
0
0
0
0
0
0
0
0
0
0
0
0
0
0
0
0
0
0
0
0
0
0
0
0
0
0
0
0
0
0
0
0
0
0
0
0
0
0
0
0
0
0
0
0
0
0
0
0
0
0
0
0
0
0
0
0
0
0
0
0
0
0
0
0
0
0
0
0
0
0
0
0
0
0
0
0
0
0
0
0
0
0
0
0
0
0
0
0
0
0
0
0
0
0
0
0
0
0
0
0
0
0
0
0
0
0
0
0
0
0
0
0
0
0
0
0
0
0
0
0
0
0
0
0
0
0
0
0
0
0
0
0
0
0
0
0
0
0
0
0
0
0
0
0
0
0
0
0
0
0
0
0
0
0
0
0
0
0
0
0
0
0
0
0
0
0
0
0
0
0
0
0
0
0
0
0
0
0
0
0
0
0
0
0
0
0
0
0
0
0
0
0
0
0
0
0
0
0
0
0
0
0
0
0
0
0
0
0
0
0
0
0
0
0
0
0
0
0
0
0
0
0
0.0776415
0.052903
0.0436505
0.0357426
0.03048
0.0271088
0.0248019
0.023116
0.0218008
0.0207277
0.0198235
0.0190436
0.0183596
0.0177519
0.0172066
0.0167134
0.0162643
0.0158532
0.0154749
0.0151254
0.0148012
0.0144993
0.0142174
0.0139533
0.0137051
0.0134714
0.0132506
0.0130416
0.0128434
0.0126549
0.0124753
0.0123039
0.0121401
0.0119833
0.0118328
0.0116884
0.0115494
0.0114156
0.0112866
0.0111621
0.0110418
0.0109254
0.0108128
0.0107037
0.0105979
0.0104952
0.0103955
0.0102987
0.0102045
0.0101129
0.0100238
0.00993702
0.00985251
0.00977015
0.00968989
0.00961163
0.00953532
0.00946088
0.00938825
0.00931738
0.00924821
0.00918069
0.00911478
0.00905044
0.00898762
0.00892629
0.0088664
0.00880793
0.00875085
0.00869512
0.00864072
0.00858762
0.00853579
0.00848522
0.00843588
0.00838776
0.00834082
0.00829504
0.00825041
0.0082069
0.00816447
0.00812309
0.00808272
0.00804332
0.00800482
0.00796719
0.00793036
0.00789428
0.00785892
0.00782423
0.0077902
0.00775687
0.00772427
0.0076925
0.00766168
0.00763199
0.00760361
0.00757676
0.00755161
0.00752833
0.00750699
0.00748756
0.00746983
0.00745344
0.0074378
0.00742213
0.00740547
0.00738677
0.00736492
0.00733898
0.00730826
0.00727259
0.00723245
0.00718924
0.00714534
0.00710425
0.00707049
0.00704944
0.00704695
0.0070688
0.00711995
0.00720364
0.00732038
0.00746691
0.00763526
0.00781194
0.00797741
0.00810617
0.00816716
0.0081252
0.0079431
0.0075849
0.00702027
0.00622997
0.00521247
0.00399068
0.00261886
0.00118753
-0.000176438
-0.00131429
-0.00204785
-0.00219741
-0.00160086
-0.000132649
0.00228376
0.00566956
0.00999027
0.0151637
0.0210667
0.0275483
0.0344447
0.0415785
0.0487553
0.0557907
0.0625218
0.0687695
0.0743182
0.0789718
0.0826324
0.0853009
0.0870088
0.0877651
0.087565
0.0864255
0.0844066
0.0816074
0.0781511
0.0741717
0.069805
0.0651825
0.0604264
0.0556458
0.0509336
0.0463651
0.0419981
0.037874
0.0340195
0.0304492
0.0271677
0.0241719
0.0214528
0.0189974
0.0167899
0.0148128
0.0130482
0.0114778
0.010084
0.00884962
0.00775867
0.0067962
0.0059484
0.00520264
0.00454744
0.00397244
0.0034683
0.00302668
0.00264012
0.002302
0.00200643
0.0017482
0.00152271
0.00132591
0.00115422
0.00100449
0.000873961
0.000760213
0.000661118
0.000574814
0.000499671
0.000434262
0.000377341
0.000327819
0.000284743
0.000247282
0.000214712
0.000186399
0.000161792
0.00014041
0.000121834
0.000105698
9.16841e-05
7.95159e-05
6.89518e-05
5.9782e-05
5.18237e-05
4.49179e-05
3.89265e-05
3.37292e-05
2.92215e-05
2.53125e-05
2.19232e-05
1.89849e-05
1.64381e-05
1.42308e-05
1.23182e-05
1.06611e-05
9.22561e-06
7.98228e-06
6.90554e-06
5.97321e-06
5.16603e-06
4.46731e-06
3.86256e-06
3.33921e-06
2.88637e-06
2.49461e-06
2.15572e-06
1.86262e-06
1.60915e-06
1.38998e-06
1.2005e-06
1.03671e-06
8.95152e-07
7.72816e-07
6.6711e-07
5.75786e-07
4.96897e-07
4.2876e-07
3.69917e-07
3.19107e-07
2.75239e-07
2.37371e-07
2.04686e-07
1.76478e-07
1.52137e-07
1.31136e-07
1.13019e-07
9.73923e-08
8.3915e-08
7.22933e-08
6.22728e-08
5.36342e-08
4.61878e-08
3.977e-08
3.42394e-08
2.9474e-08
2.53684e-08
2.18319e-08
1.87858e-08
1.61626e-08
1.39038e-08
1.19591e-08
1.0285e-08
8.8441e-09
7.604e-09
6.53691e-09
5.61879e-09
4.82897e-09
4.1496e-09
3.56532e-09
3.06288e-09
2.63089e-09
2.25951e-09
1.94028e-09
1.66592e-09
1.43015e-09
1.22758e-09
1.05355e-09
9.04061e-10
7.75672e-10
6.65419e-10
5.70755e-10
4.89486e-10
4.19727e-10
3.59857e-10
3.08481e-10
2.64401e-10
2.26585e-10
1.94149e-10
1.66331e-10
1.42477e-10
1.22026e-10
1.04495e-10
8.9468e-11
7.65904e-11
6.55559e-11
5.6102e-11
4.80035e-11
4.10668e-11
3.5126e-11
3.00386e-11
2.56824e-11
2.19529e-11
1.87605e-11
1.60288e-11
1.36927e-11
1.16963e-11
9.99175e-12
8.53748e-12
7.29745e-12
6.24032e-12
5.33896e-12
4.57e-12
3.91336e-12
3.35152e-12
2.86875e-12
2.45052e-12
2.08344e-12
1.75599e-12
1.45993e-12
1.19193e-12
9.54612e-13
7.56145e-13
6.07738e-13
5.19243e-13
4.93788e-13
5.23151e-13
5.85782e-13
6.48911e-13
6.75065e-13
6.31773e-13
5.01914e-13
2.91413e-13
3.13144e-14
-2.27337e-13
-4.253e-13
-5.10886e-13
-4.55362e-13
-2.63372e-13
2.51688e-14
3.4293e-13
6.11206e-13
7.60021e-13
7.4683e-13
5.68514e-13
2.63176e-13
-9.89763e-14
-4.33264e-13
-6.61957e-13
-7.33715e-13
-6.3592e-13
-3.96814e-13
-7.72009e-14
2.45724e-13
4.97899e-13
6.26095e-13
6.09385e-13
4.61915e-13
2.26905e-13
-3.59344e-14
-2.65864e-13
-4.1541e-13
-4.60068e-13
-4.01555e-13
-2.64494e-13
-8.81092e-14
8.45004e-14
2.16629e-13
2.85408e-13
2.85041e-13
2.25666e-13
1.28747e-13
2.05802e-14
-7.4273e-14
-1.38114e-13
-1.62848e-13
-1.50109e-13
-1.09208e-13
-5.37327e-14
2.16376e-15
4.6915e-14
7.35215e-14
8.015e-14
6.94916e-14
4.72697e-14
2.04026e-14
-4.70427e-15
-2.33908e-14
-3.33345e-14
-3.45141e-14
-2.86943e-14
-1.86515e-14
-7.36533e-15
2.64096e-15
9.70832e-15
1.31705e-14
1.32453e-14
1.07698e-14
6.87471e-15
2.68111e-15
-9.22206e-16
-3.39614e-15
-4.56631e-15
-4.56009e-15
-3.69955e-15
-2.38436e-15
-9.91405e-16
1.93089e-16
1.00413e-15
1.39573e-15
1.41558e-15
1.1686e-15
7.79732e-16
3.63847e-16
6.5606e-18
-2.43444e-16
-3.72554e-16
-3.94093e-16
-3.37461e-16
-2.37526e-16
-1.26287e-16
-2.7711e-17
4.42385e-17
8.50244e-17
9.73436e-17
8.82653e-17
6.64753e-17
4.01203e-17
1.54706e-17
-3.61691e-18
-1.56004e-17
-2.07533e-17
-2.04945e-17
-1.67345e-17
-1.13546e-17
-5.87317e-18
-1.29513e-18
1.89049e-18
3.61691e-18
4.10148e-18
3.70478e-18
2.81401e-18
1.76369e-18
7.9476e-19
4.56214e-20
-4.34913e-19
-6.63235e-19
-6.93819e-19
-5.9535e-19
-4.33234e-19
-2.5928e-19
-1.0772e-19
4.12522e-21
7.24243e-20
1.02325e-19
1.03593e-19
8.71228e-20
6.26053e-20
3.73159e-20
1.58045e-20
1.84343e-22
-9.26825e-21
-1.3431e-20
-1.37249e-20
-1.16533e-20
-8.51253e-21
-5.25441e-21
-2.46435e-21
-4.11187e-22
8.68983e-22
1.48346e-21
1.60588e-21
1.41961e-21
1.083e-21
7.13297e-22
3.84236e-22
1.31989e-22
-3.50552e-23
-1.25965e-22
-1.58379e-22
-1.51956e-22
-1.24282e-22
-8.88639e-23
-5.46682e-23
-2.66063e-23
-6.48339e-24
5.95119e-24
1.20706e-23
1.36591e-23
1.24445e-23
9.84357e-24
6.87105e-24
4.15368e-24
2.00119e-24
4.9724e-25
-4.13518e-25
-8.54725e-25
-9.68207e-25
-8.83389e-25
-7.02429e-25
-4.9641e-25
-3.08196e-25
-1.58489e-25
-5.26479e-26
1.31665e-26
4.71955e-26
5.87894e-26
5.64489e-26
4.69e-26
3.48731e-26
2.32958e-26
1.36766e-26
6.53172e-27
1.7668e-27
-1.0246e-27
-2.35392e-27
-2.71115e-27
-2.501e-27
-2.02204e-27
-1.47189e-27
-9.65281e-28
-5.56102e-28
-2.58245e-28
-6.25513e-29
5.0841e-29
1.04432e-28
1.18761e-28
1.10306e-28
9.09988e-29
6.86502e-29
4.77846e-29
3.05583e-29
1.7585e-29
8.58878e-30
2.87207e-30
-3.81618e-31
-1.9345e-30
-2.4132e-30
-2.28649e-30
-1.87654e-30
-1.38549e-30
-9.26217e-31
-5.50562e-31
-2.72336e-31
-8.43263e-32
3.01586e-32
9.01477e-32
1.13105e-31
1.13202e-31
1.00934e-31
8.34466e-32
6.51825e-32
4.85899e-32
3.47576e-32
2.39272e-32
1.58687e-32
1.01364e-32
6.22802e-33
3.67349e-33
2.07663e-33
1.12673e-33
5.93792e-34
3.1607e-34
1.85247e-34
1.32433e-34
1.16305e-34
1.13841e-34
1.13519e-34
1.10578e-34
1.03913e-34
9.41329e-35
8.24485e-35
7.00842e-35
5.80217e-35
4.69271e-35
3.71741e-35
2.89051e-35
2.21008e-35
1.66416e-35
1.23563e-35
9.05645e-36
6.55853e-36
4.69658e-36
3.32803e-36
2.33501e-36
1.62299e-36
1.1181e-36
7.63773e-37
5.17527e-37
3.47964e-37
2.32222e-37
1.53874e-37
1.01257e-37
6.61896e-38
4.29884e-38
2.77457e-38
1.77993e-38
1.13513e-38
7.19772e-39
4.5385e-39
2.84615e-39
1.77537e-39
1.10168e-39
6.80153e-40
4.17822e-40
2.55418e-40
1.55392e-40
9.40941e-41
5.67138e-41
3.40286e-41
2.03264e-41
1.20885e-41
7.15823e-42
4.22078e-42
2.47834e-42
1.44923e-42
8.44003e-43
4.89563e-43
2.82848e-43
1.6278e-43
9.33193e-44
5.32952e-44
3.03228e-44
1.71884e-44
9.70739e-45
5.4625e-45
3.0628e-45
1.7112e-45
9.52692e-46
5.28557e-46
2.92236e-46
1.61024e-46
8.84262e-47
4.83966e-47
2.64002e-47
1.4354e-47
7.77893e-48
4.20209e-48
2.26266e-48
1.21449e-48
6.49828e-49
3.46615e-49
1.84311e-49
9.77053e-50
5.16369e-50
2.72074e-50
1.42925e-50
7.48575e-51
3.90909e-51
2.03535e-51
1.05665e-51
5.46977e-52
2.82328e-52
1.4531e-52
7.45771e-53
3.8167e-53
1.94784e-53
9.91307e-54
5.03107e-54
2.54634e-54
1.28525e-54
6.46955e-55
3.2478e-55
1.62606e-55
8.11941e-56
4.04351e-56
2.00838e-56
9.94934e-57
4.91595e-57
2.42266e-57
1.19085e-57
5.83854e-58
2.85524e-58
1.39276e-58
6.77661e-59
3.28894e-59
1.59225e-59
7.68928e-60
3.70411e-60
1.77996e-60
8.5324e-61
4.0801e-61
1.94633e-61
9.26209e-62
4.397e-62
2.0824e-62
9.83862e-63
4.63739e-63
2.18065e-63
1.023e-63
4.78792e-64
2.23566e-64
1.04149e-64
4.84061e-65
2.24463e-65
1.03847e-65
4.79346e-66
2.20758e-66
1.01438e-66
4.65058e-67
2.12733e-67
9.7094e-68
4.42162e-68
2.00912e-68
9.10899e-69
4.12076e-69
1.86008e-69
8.37793e-70
3.76526e-70
1.68854e-70
7.55597e-71
3.37391e-71
1.50329e-71
6.68385e-72
2.9654e-72
1.31286e-72
5.80012e-73
2.55705e-73
1.12494e-73
4.93868e-74
2.16365e-74
9.45933e-75
4.127e-75
1.79685e-75
7.80723e-76
3.38526e-76
1.46487e-76
6.32589e-77
2.72623e-77
1.17253e-77
5.03284e-78
2.15589e-78
9.21661e-79
3.93232e-79
1.67441e-79
7.11561e-80
3.01789e-80
1.27744e-80
5.39661e-81
2.27537e-81
9.57488e-82
4.02133e-82
1.68563e-82
7.05204e-83
2.94461e-83
1.22717e-83
5.10447e-84
2.11916e-84
8.78112e-85
3.63169e-85
1.49915e-85
6.17674e-86
2.54012e-86
1.04264e-86
4.27167e-87
1.74683e-87
7.13007e-88
2.90489e-88
1.1813e-88
4.79498e-89
1.94273e-89
7.85672e-90
3.17156e-90
1.27794e-90
5.1399e-91
2.06353e-91
8.26946e-92
3.30795e-92
1.32086e-92
5.26468e-93
2.09463e-93
8.31892e-94
3.29799e-94
1.30515e-94
5.15581e-95
2.03313e-95
8.00324e-96
3.14485e-96
1.23359e-96
4.83036e-97
1.88812e-97
7.36748e-98
2.86981e-98
1.11592e-98
4.33173e-99
1.67856e-99
6.4933e-100
2.50753e-100
9.66677e-101
3.72026e-101
1.4293e-101
5.48193e-102
2.09896e-102
8.02307e-103
3.06155e-103
1.1663e-103
4.43552e-104
1.68404e-104
6.38308e-105
2.41536e-105
9.12452e-106
3.44124e-106
1.29568e-106
4.87036e-107
1.82771e-107
6.84756e-108
2.56124e-108
9.56425e-109
3.56566e-109
1.32715e-109
4.93162e-110
1.82959e-110
6.77658e-111
2.50591e-111
9.25159e-112
3.4101e-112
1.25493e-112
4.61075e-113
1.69133e-113
6.19427e-114
2.26495e-114
8.26866e-115
3.01384e-115
1.09678e-115
3.98499e-116
1.4456e-116
5.23586e-117
1.8934e-117
6.8362e-118
2.46438e-118
8.86992e-119
3.18753e-119
1.1437e-119
4.09729e-120
1.46557e-120
5.23412e-121
1.86642e-121
6.64518e-122
2.3623e-122
8.38487e-123
2.97161e-123
1.05153e-123
3.71528e-124
1.31068e-124
4.61682e-125
1.62379e-125
5.7024e-126
1.99954e-126
7.00077e-127
2.44742e-127
8.54313e-128
2.97766e-128
1.03629e-128
3.60114e-129
1.24954e-129
4.32925e-130
1.49772e-130
5.17372e-131
1.78457e-131
6.14639e-132
2.11382e-132
7.25897e-133
2.48911e-133
8.52267e-134
2.91388e-134
9.94792e-135
3.39124e-135
1.15439e-135
3.92388e-136
1.33183e-136
4.5139e-137
1.52766e-137
5.16267e-138
1.7422e-138
5.87076e-139
1.97546e-139
6.63773e-140
2.22715e-140
7.46205e-141
2.4966e-141
8.34104e-142
2.78275e-142
9.27072e-143
3.08416e-143
1.02458e-143
3.39894e-144
1.12597e-144
3.72479e-145
1.23046e-145
4.05902e-146
1.33712e-146
4.39856e-147
1.44493e-147
4.73998e-148
1.55276e-148
5.07959e-149
1.6594e-149
5.41344e-150
1.76358e-150
5.73747e-151
1.864e-151
6.04751e-152
1.95934e-152
6.33942e-153
2.04831e-153
6.60919e-154
2.12965e-154
6.85297e-155
2.20221e-155
7.06725e-156
2.26492e-156
7.24886e-157
2.31686e-157
7.3951e-158
2.35724e-158
7.5038e-159
2.38548e-159
7.57337e-160
2.40116e-160
7.60281e-161
2.40408e-161
7.59179e-162
2.39422e-162
7.54061e-163
2.37178e-163
7.45019e-164
2.33715e-164
7.32208e-165
2.29092e-165
7.15839e-166
2.23383e-166
6.96172e-167
2.16678e-167
6.7351e-168
2.09078e-168
6.48196e-169
2.00696e-169
6.20596e-170
1.91653e-170
5.91098e-171
1.82072e-171
5.60099e-172
1.72079e-172
5.27995e-173
1.61799e-173
4.9518e-174
1.51354e-174
4.6203e-175
1.40861e-175
4.28902e-176
1.30428e-176
3.96126e-177
1.20155e-177
3.64e-178
1.10131e-178
3.3279e-179
1.00434e-179
3.02722e-180
9.11299e-181
2.73988e-181
8.22727e-182
2.46738e-182
7.39048e-183
2.21088e-183
6.60568e-184
1.97118e-184
5.87484e-185
1.74874e-185
5.19893e-186
1.54371e-186
4.57803e-187
1.35599e-187
4.01139e-188
1.18522e-188
3.4976e-189
1.03087e-189
3.03464e-190
8.92231e-191
2.62008e-191
7.68461e-192
2.25112e-192
6.58635e-193
1.9247e-193
5.61762e-194
1.63762e-194
4.76814e-195
1.38662e-195
4.02755e-196
1.16842e-196
3.38559e-197
9.79818e-198
2.83227e-198
8.17713e-199
2.35801e-199
6.79158e-200
1.95378e-200
5.61386e-201
1.61112e-201
4.61825e-202
1.32224e-202
3.78116e-203
1.08e-203
3.08113e-204
8.77971e-205
2.49883e-205
7.10362e-206
2.01702e-206
5.72043e-207
1.62045e-207
4.58494e-208
1.29575e-208
3.65762e-209
1.03126e-209
2.90422e-210
8.16927e-211
2.29525e-211
6.44127e-212
1.80554e-212
5.05521e-213
1.41373e-213
3.94902e-214
1.10182e-214
3.07064e-215
8.54764e-216
2.37663e-216
6.60051e-217
1.83102e-217
5.07353e-218
1.4042e-218
3.88194e-219
1.07194e-219
2.95664e-220
8.1457e-221
2.24163e-221
6.16174e-222
1.6918e-222
4.63982e-223
1.27104e-223
3.47798e-224
9.50608e-225
2.59528e-225
7.07746e-226
1.92788e-226
5.24558e-227
1.42566e-227
3.87038e-228
1.04955e-228
2.84291e-229
7.69195e-230
2.07886e-230
5.61213e-231
1.51337e-231
4.07643e-232
1.09681e-232
2.94779e-233
7.91372e-234
2.12218e-234
5.68465e-235
1.52105e-235
4.0654e-236
1.08538e-236
2.89456e-237
7.7109e-238
2.05186e-238
5.45399e-239
1.44812e-239
3.84075e-240
1.01754e-240
2.69286e-241
7.1187e-242
1.87981e-242
4.95851e-243
1.30652e-243
3.43882e-244
9.04127e-245
2.37453e-245
6.22954e-246
1.63254e-246
4.27366e-247
1.11755e-247
2.91922e-248
7.61723e-249
1.98545e-249
5.16957e-250
1.34457e-250
3.49337e-251
9.06651e-252
2.35056e-252
6.08747e-253
1.57485e-253
4.06983e-254
1.05063e-254
2.70933e-255
6.9793e-256
1.79597e-256
4.61664e-257
1.18547e-257
3.04087e-258
7.7919e-259
1.99448e-259
5.09986e-260
1.30265e-260
3.32384e-261
8.47217e-262
2.15721e-262
5.48699e-263
1.39418e-263
3.53876e-264
8.97278e-265
2.27273e-265
5.75065e-266
1.45355e-266
3.67023e-267
9.25768e-268
2.3327e-268
5.87172e-269
1.47646e-269
3.70873e-270
9.30636e-271
2.33284e-271
5.84172e-272
1.46133e-272
3.65181e-273
9.11633e-274
2.27345e-274
5.66373e-275
1.40953e-275
3.50429e-276
8.70324e-277
2.15932e-277
5.3519e-278
1.32512e-278
3.27763e-279
8.09881e-280
1.99912e-280
4.92965e-281
1.21437e-281
2.98844e-282
7.34679e-283
1.80431e-283
4.42673e-284
1.08497e-284
2.65651e-285
6.49781e-286
1.58776e-286
3.87583e-287
9.45166e-288
2.30258e-288
5.60382e-289
1.36244e-289
3.30916e-290
8.02937e-291
1.9463e-291
4.71309e-292
1.14016e-292
2.75547e-293
6.6526e-294
1.60455e-294
3.86621e-295
9.30647e-296
2.23797e-296
5.3764e-297
1.29033e-297
3.09369e-298
7.41012e-299
1.77315e-299
4.23873e-300
1.01227e-300
2.41509e-301
5.75627e-302
1.37063e-302
3.26044e-303
7.74826e-304
1.83953e-304
4.36299e-305
1.0338e-305
2.44717e-306
5.78721e-307
1.36726e-307
3.22706e-308
7.60925e-309
1.79248e-309
4.21837e-310
9.91774e-311
2.32949e-311
5.46622e-312
1.28143e-312
3.0011e-313
7.02178e-314
1.64133e-314
3.83287e-315
8.94199e-316
2.08414e-316
4.85291e-317
1.12891e-317
2.62363e-318
6.09158e-319
1.41303e-319
3.27516e-320
7.57897e-321
1.75393e-321
4.00193e-322
8.89318e-323
1.97626e-323
0
0
0
0
0
0
0
0
0
0
0
0
0
0
0
0
0
0
0
0
0
0
0
0
0
0
0
0
0
0
0
0
0
0
0
0
0
0
0
0
0
0
0
0
0
0
0
0
0
0
0
0
0
0
0
0
0
0
0
0
0
0
0
0
0
0
0
0
0
0
0
0
0
0
0
0
0
0
0
0
0
0
0
0
0
0
0
0
0
0
0
0
0
0
0
0
0
0
0
0
0
0
0
0
0
0
0
0
0
0
0
0
0
0
0
0
0
0
0
0
0
0
0
0
0
0
0
0
0
0
0
0
0
0
0
0
0
0
0
0
0
0
0
0
0
0
0
0
0
0
0
0
0
0
0
0
0
0
0
0
0
0
0
0
0
0
0
0
0
0
0
0
0
0
0
0
0
0
0
0
0
0
0
0
0
0
0
0
0
0
0
0
0
0
0
0
0
0
0
0
0
0
0
0
0
0
0
0
0
0
0
0
0
0
0
0
0
0
0
0
0
0
0
0
0
0
0
0
0
0
0
0
0
0
0
0
0
0
0
0
0
0
0
0
0
0
0
0
0
0
0
0
0
0
0
0
0
0
0
0
0
0
0
0
0
0
0
0
0
0
0
0
0
0
0
0
0
0
0
0
0
0
0
0
0
0
0
0
0
0
0
0
0
0
0
0
0
0
0
0
0
0
0
0
0
0
0
0
0
0
0
0
0
0
0
0
0
0
0
0
0
0
0
0
0
0
0
0
0
0
0
0
0
0
0
0
0
0
0
0
0
0
0
0
0
0
0
0
0
0
0
0
0
0
0
0
0
0
0
0
0
0
0
0
0
0
0
0
0
0
0
0
0
0
0
0
0
0
0.062787
0.0345542
0.0299574
0.025277
0.0221391
0.0200069
0.0184495
0.0172639
0.0163155
0.0155312
0.0148652
0.0142884
0.013781
0.0133294
0.0129237
0.0125563
0.0122216
0.0119149
0.0116326
0.0113716
0.0111293
0.0109037
0.0106929
0.0104953
0.0103096
0.0101346
0.00996925
0.00981273
0.00966419
0.00952296
0.0093884
0.00925997
0.00913718
0.00901959
0.0089068
0.00879848
0.00869429
0.00859396
0.00849723
0.00840386
0.00831364
0.00822639
0.00814193
0.00806009
0.00798075
0.00790375
0.00782899
0.00775635
0.00768573
0.00761704
0.00755019
0.0074851
0.00742171
0.00735994
0.00729974
0.00724104
0.00718379
0.00712795
0.00707346
0.00702029
0.0069684
0.00691775
0.00686829
0.00682002
0.00677288
0.00672685
0.00668191
0.00663803
0.00659518
0.00655335
0.00651251
0.00647265
0.00643374
0.00639577
0.00635873
0.00632258
0.00628733
0.00625296
0.00621944
0.00618676
0.00615489
0.00612381
0.00609349
0.00606389
0.00603499
0.00600673
0.00597908
0.00595199
0.00592543
0.00589938
0.00587382
0.00584877
0.00582426
0.00580035
0.00577713
0.00575474
0.0057333
0.00571299
0.00569394
0.00567628
0.00566009
0.00564534
0.00563192
0.00561957
0.00560787
0.00559626
0.00558404
0.00557039
0.0055545
0.00553561
0.00551316