# vtk DataFile Version 2.0
FlowField
ASCII
DATASET STRUCTURED_GRID
DIMENSIONS 1602 1 52
POINTS 83304 float
0 0 0
0.1 0 0
0.2 0 0
0.3 0 0
0.4 0 0
0.5 0 0
0.6 0 0
0.7 0 0
0.8 0 0
0.9 0 0
1 0 0
1.1 0 0
1.2 0 0
1.3 0 0
1.4 0 0
1.5 0 0
1.6 0 0
1.7 0 0
1.8 0 0
1.9 0 0
2 0 0
2.1 0 0
2.2 0 0
2.3 0 0
2.4 0 0
2.5 0 0
2.6 0 0
2.7 0 0
2.8 0 0
2.9 0 0
3 0 0
3.1 0 0
3.2 0 0
3.3 0 0
3.4 0 0
3.5 0 0
3.6 0 0
3.7 0 0
3.8 0 0
3.9 0 0
4 0 0
4.1 0 0
4.2 0 0
4.3 0 0
4.4 0 0
4.5 0 0
4.6 0 0
4.7 0 0
4.8 0 0
4.9 0 0
5 0 0
5.1 0 0
5.2 0 0
5.3 0 0
5.4 0 0
5.5 0 0
5.6 0 0
5.7 0 0
5.8 0 0
5.9 0 0
6 0 0
6.1 0 0
6.2 0 0
6.3 0 0
6.4 0 0
6.5 0 0
6.6 0 0
6.7 0 0
6.8 0 0
6.9 0 0
7 0 0
7.1 0 0
7.2 0 0
7.3 0 0
7.4 0 0
7.5 0 0
7.6 0 0
7.7 0 0
7.8 0 0
7.9 0 0
8 0 0
8.1 0 0
8.2 0 0
8.3 0 0
8.4 0 0
8.5 0 0
8.6 0 0
8.7 0 0
8.8 0 0
8.9 0 0
9 0 0
9.1 0 0
9.2 0 0
9.3 0 0
9.4 0 0
9.5 0 0
9.6 0 0
9.7 0 0
9.8 0 0
9.9 0 0
10 0 0
10.1 0 0
10.2 0 0
10.3 0 0
10.4 0 0
10.5 0 0
10.6 0 0
10.7 0 0
10.8 0 0
10.9 0 0
11 0 0
11.1 0 0
11.2 0 0
11.3 0 0
11.4 0 0
11.5 0 0
11.6 0 0
11.7 0 0
11.8 0 0
11.9 0 0
12 0 0
12.1 0 0
12.2 0 0
12.3 0 0
12.4 0 0
12.5 0 0
12.6 0 0
12.7 0 0
12.8 0 0
12.9 0 0
13 0 0
13.1 0 0
13.2 0 0
13.3 0 0
13.4 0 0
13.5 0 0
13.6 0 0
13.7 0 0
13.8 0 0
13.9 0 0
14 0 0
14.1 0 0
14.2 0 0
14.3 0 0
14.4 0 0
14.5 0 0
14.6 0 0
14.7 0 0
14.8 0 0
14.9 0 0
15 0 0
15.1 0 0
15.2 0 0
15.3 0 0
15.4 0 0
15.5 0 0
15.6 0 0
15.7 0 0
15.8 0 0
15.9 0 0
16 0 0
16.1 0 0
16.2 0 0
16.3 0 0
16.4 0 0
16.5 0 0
16.6 0 0
16.7 0 0
16.8 0 0
16.9 0 0
17 0 0
17.1 0 0
17.2 0 0
17.3 0 0
17.4 0 0
17.5 0 0
17.6 0 0
17.7 0 0
17.8 0 0
17.9 0 0
18 0 0
18.1 0 0
18.2 0 0
18.3 0 0
18.4 0 0
18.5 0 0
18.6 0 0
18.7 0 0
18.8 0 0
18.9 0 0
19 0 0
19.1 0 0
19.2 0 0
19.3 0 0
19.4 0 0
19.5 0 0
19.6 0 0
19.7 0 0
19.8 0 0
19.9 0 0
20 0 0
20.1 0 0
20.2 0 0
20.3 0 0
20.4 0 0
20.5 0 0
20.6 0 0
20.7 0 0
20.8 0 0
20.9 0 0
21 0 0
21.1 0 0
21.2 0 0
21.3 0 0
21.4 0 0
21.5 0 0
21.6 0 0
21.7 0 0
21.8 0 0
21.9 0 0
22 0 0
22.1 0 0
22.2 0 0
22.3 0 0
22.4 0 0
22.5 0 0
22.6 0 0
22.7 0 0
22.8 0 0
22.9 0 0
23 0 0
23.1 0 0
23.2 0 0
23.3 0 0
23.4 0 0
23.5 0 0
23.6 0 0
23.7 0 0
23.8 0 0
23.9 0 0
24 0 0
24.1 0 0
24.2 0 0
24.3 0 0
24.4 0 0
24.5 0 0
24.6 0 0
24.7 0 0
24.8 0 0
24.9 0 0
25 0 0
25.1 0 0
25.2 0 0
25.3 0 0
25.4 0 0
25.5 0 0
25.6 0 0
25.7 0 0
25.8 0 0
25.9 0 0
26 0 0
26.1 0 0
26.2 0 0
26.3 0 0
26.4 0 0
26.5 0 0
26.6 0 0
26.7 0 0
26.8 0 0
26.9 0 0
27 0 0
27.1 0 0
27.2 0 0
27.3 0 0
27.4 0 0
27.5 0 0
27.6 0 0
27.7 0 0
27.8 0 0
27.9 0 0
28 0 0
28.1 0 0
28.2 0 0
28.3 0 0
28.4 0 0
28.5 0 0
28.6 0 0
28.7 0 0
28.8 0 0
28.9 0 0
29 0 0
29.1 0 0
29.2 0 0
29.3 0 0
29.4 0 0
29.5 0 0
29.6 0 0
29.7 0 0
29.8 0 0
29.9 0 0
30 0 0
30.1 0 0
30.2 0 0
30.3 0 0
30.4 0 0
30.5 0 0
30.6 0 0
30.7 0 0
30.8 0 0
30.9 0 0
31 0 0
31.1 0 0
31.2 0 0
31.3 0 0
31.4 0 0
31.5 0 0
31.6 0 0
31.7 0 0
31.8 0 0
31.9 0 0
32 0 0
32.1 0 0
32.2 0 0
32.3 0 0
32.4 0 0
32.5 0 0
32.6 0 0
32.7 0 0
32.8 0 0
32.9 0 0
33 0 0
33.1 0 0
33.2 0 0
33.3 0 0
33.4 0 0
33.5 0 0
33.6 0 0
33.7 0 0
33.8 0 0
33.9 0 0
34 0 0
34.1 0 0
34.2 0 0
34.3 0 0
34.4 0 0
34.5 0 0
34.6 0 0
34.7 0 0
34.8 0 0
34.9 0 0
35 0 0
35.1 0 0
35.2 0 0
35.3 0 0
35.4 0 0
35.5 0 0
35.6 0 0
35.7 0 0
35.8 0 0
35.9 0 0
36 0 0
36.1 0 0
36.2 0 0
36.3 0 0
36.4 0 0
36.5 0 0
36.6 0 0
36.7 0 0
36.8 0 0
36.9 0 0
37 0 0
37.1 0 0
37.2 0 0
37.3 0 0
37.4 0 0
37.5 0 0
37.6 0 0
37.7 0 0
37.8 0 0
37.9 0 0
38 0 0
38.1 0 0
38.2 0 0
38.3 0 0
38.4 0 0
38.5 0 0
38.6 0 0
38.7 0 0
38.8 0 0
38.9 0 0
39 0 0
39.1 0 0
39.2 0 0
39.3 0 0
39.4 0 0
39.5 0 0
39.6 0 0
39.7 0 0
39.8 0 0
39.9 0 0
40 0 0
40.1 0 0
40.2 0 0
40.3 0 0
40.4 0 0
40.5 0 0
40.6 0 0
40.7 0 0
40.8 0 0
40.9 0 0
41 0 0
41.1 0 0
41.2 0 0
41.3 0 0
41.4 0 0
41.5 0 0
41.6 0 0
41.7 0 0
41.8 0 0
41.9 0 0
42 0 0
42.1 0 0
42.2 0 0
42.3 0 0
42.4 0 0
42.5 0 0
42.6 0 0
42.7 0 0
42.8 0 0
42.9 0 0
43 0 0
43.1 0 0
43.2 0 0
43.3 0 0
43.4 0 0
43.5 0 0
43.6 0 0
43.7 0 0
43.8 0 0
43.9 0 0
44 0 0
44.1 0 0
44.2 0 0
44.3 0 0
44.4 0 0
44.5 0 0
44.6 0 0
44.7 0 0
44.8 0 0
44.9 0 0
45 0 0
45.1 0 0
45.2 0 0
45.3 0 0
45.4 0 0
45.5 0 0
45.6 0 0
45.7 0 0
45.8 0 0
45.9 0 0
46 0 0
46.1 0 0
46.2 0 0
46.3 0 0
46.4 0 0
46.5 0 0
46.6 0 0
46.7 0 0
46.8 0 0
46.9 0 0
47 0 0
47.1 0 0
47.2 0 0
47.3 0 0
47.4 0 0
47.5 0 0
47.6 0 0
47.7 0 0
47.8 0 0
47.9 0 0
48 0 0
48.1 0 0
48.2 0 0
48.3 0 0
48.4 0 0
48.5 0 0
48.6 0 0
48.7 0 0
48.8 0 0
48.9 0 0
49 0 0
49.1 0 0
49.2 0 0
49.3 0 0
49.4 0 0
49.5 0 0
49.6 0 0
49.7 0 0
49.8 0 0
49.9 0 0
50 0 0
50.1 0 0
50.2 0 0
50.3 0 0
50.4 0 0
50.5 0 0
50.6 0 0
50.7 0 0
50.8 0 0
50.9 0 0
51 0 0
51.1 0 0
51.2 0 0
51.3 0 0
51.4 0 0
51.5 0 0
51.6 0 0
51.7 0 0
51.8 0 0
51.9 0 0
52 0 0
52.1 0 0
52.2 0 0
52.3 0 0
52.4 0 0
52.5 0 0
52.6 0 0
52.7 0 0
52.8 0 0
52.9 0 0
53 0 0
53.1 0 0
53.2 0 0
53.3 0 0
53.4 0 0
53.5 0 0
53.6 0 0
53.7 0 0
53.8 0 0
53.9 0 0
54 0 0
54.1 0 0
54.2 0 0
54.3 0 0
54.4 0 0
54.5 0 0
54.6 0 0
54.7 0 0
54.8 0 0
54.9 0 0
55 0 0
55.1 0 0
55.2 0 0
55.3 0 0
55.4 0 0
55.5 0 0
55.6 0 0
55.7 0 0
55.8 0 0
55.9 0 0
56 0 0
56.1 0 0
56.2 0 0
56.3 0 0
56.4 0 0
56.5 0 0
56.6 0 0
56.7 0 0
56.8 0 0
56.9 0 0
57 0 0
57.1 0 0
57.2 0 0
57.3 0 0
57.4 0 0
57.5 0 0
57.6 0 0
57.7 0 0
57.8 0 0
57.9 0 0
58 0 0
58.1 0 0
58.2 0 0
58.3 0 0
58.4 0 0
58.5 0 0
58.6 0 0
58.7 0 0
58.8 0 0
58.9 0 0
59 0 0
59.1 0 0
59.2 0 0
59.3 0 0
59.4 0 0
59.5 0 0
59.6 0 0
59.7 0 0
59.8 0 0
59.9 0 0
60 0 0
60.1 0 0
60.2 0 0
60.3 0 0
60.4 0 0
60.5 0 0
60.6 0 0
60.7 0 0
60.8 0 0
60.9 0 0
61 0 0
61.1 0 0
61.2 0 0
61.3 0 0
61.4 0 0
61.5 0 0
61.6 0 0
61.7 0 0
61.8 0 0
61.9 0 0
62 0 0
62.1 0 0
62.2 0 0
62.3 0 0
62.4 0 0
62.5 0 0
62.6 0 0
62.7 0 0
62.8 0 0
62.9 0 0
63 0 0
63.1 0 0
63.2 0 0
63.3 0 0
63.4 0 0
63.5 0 0
63.6 0 0
63.7 0 0
63.8 0 0
63.9 0 0
64 0 0
64.1 0 0
64.2 0 0
64.3 0 0
64.4 0 0
64.5 0 0
64.6 0 0
64.7 0 0
64.8 0 0
64.9 0 0
65 0 0
65.1 0 0
65.2 0 0
65.3 0 0
65.4 0 0
65.5 0 0
65.6 0 0
65.7 0 0
65.8 0 0
65.9 0 0
66 0 0
66.1 0 0
66.2 0 0
66.3 0 0
66.4 0 0
66.5 0 0
66.6 0 0
66.7 0 0
66.8 0 0
66.9 0 0
67 0 0
67.1 0 0
67.2 0 0
67.3 0 0
67.4 0 0
67.5 0 0
67.6 0 0
67.7 0 0
67.8 0 0
67.9 0 0
68 0 0
68.1 0 0
68.2 0 0
68.3 0 0
68.4 0 0
68.5 0 0
68.6 0 0
68.7 0 0
68.8 0 0
68.9 0 0
69 0 0
69.1 0 0
69.2 0 0
69.3 0 0
69.4 0 0
69.5 0 0
69.6 0 0
69.7 0 0
69.8 0 0
69.9 0 0
70 0 0
70.1 0 0
70.2 0 0
70.3 0 0
70.4 0 0
70.5 0 0
70.6 0 0
70.7 0 0
70.8 0 0
70.9 0 0
71 0 0
71.1 0 0
71.2 0 0
71.3 0 0
71.4 0 0
71.5 0 0
71.6 0 0
71.7 0 0
71.8 0 0
71.9 0 0
72 0 0
72.1 0 0
72.2 0 0
72.3 0 0
72.4 0 0
72.5 0 0
72.6 0 0
72.7 0 0
72.8 0 0
72.9 0 0
73 0 0
73.1 0 0
73.2 0 0
73.3 0 0
73.4 0 0
73.5 0 0
73.6 0 0
73.7 0 0
73.8 0 0
73.9 0 0
74 0 0
74.1 0 0
74.2 0 0
74.3 0 0
74.4 0 0
74.5 0 0
74.6 0 0
74.7 0 0
74.8 0 0
74.9 0 0
75 0 0
75.1 0 0
75.2 0 0
75.3 0 0
75.4 0 0
75.5 0 0
75.6 0 0
75.7 0 0
75.8 0 0
75.9 0 0
76 0 0
76.1 0 0
76.2 0 0
76.3 0 0
76.4 0 0
76.5 0 0
76.6 0 0
76.7 0 0
76.8 0 0
76.9 0 0
77 0 0
77.1 0 0
77.2 0 0
77.3 0 0
77.4 0 0
77.5 0 0
77.6 0 0
77.7 0 0
77.8 0 0
77.9 0 0
78 0 0
78.1 0 0
78.2 0 0
78.3 0 0
78.4 0 0
78.5 0 0
78.6 0 0
78.7 0 0
78.8 0 0
78.9 0 0
79 0 0
79.1 0 0
79.2 0 0
79.3 0 0
79.4 0 0
79.5 0 0
79.6 0 0
79.7 0 0
79.8 0 0
79.9 0 0
80 0 0
80.1 0 0
80.2 0 0
80.3 0 0
80.4 0 0
80.5 0 0
80.6 0 0
80.7 0 0
80.8 0 0
80.9 0 0
81 0 0
81.1 0 0
81.2 0 0
81.3 0 0
81.4 0 0
81.5 0 0
81.6 0 0
81.7 0 0
81.8 0 0
81.9 0 0
82 0 0
82.1 0 0
82.2 0 0
82.3 0 0
82.4 0 0
82.5 0 0
82.6 0 0
82.7 0 0
82.8 0 0
82.9 0 0
83 0 0
83.1 0 0
83.2 0 0
83.3 0 0
83.4 0 0
83.5 0 0
83.6 0 0
83.7 0 0
83.8 0 0
83.9 0 0
84 0 0
84.1 0 0
84.2 0 0
84.3 0 0
84.4 0 0
84.5 0 0
84.6 0 0
84.7 0 0
84.8 0 0
84.9 0 0
85 0 0
85.1 0 0
85.2 0 0
85.3 0 0
85.4 0 0
85.5 0 0
85.6 0 0
85.7 0 0
85.8 0 0
85.9 0 0
86 0 0
86.1 0 0
86.2 0 0
86.3 0 0
86.4 0 0
86.5 0 0
86.6 0 0
86.7 0 0
86.8 0 0
86.9 0 0
87 0 0
87.1 0 0
87.2 0 0
87.3 0 0
87.4 0 0
87.5 0 0
87.6 0 0
87.7 0 0
87.8 0 0
87.9 0 0
88 0 0
88.1 0 0
88.2 0 0
88.3 0 0
88.4 0 0
88.5 0 0
88.6 0 0
88.7 0 0
88.8 0 0
88.9 0 0
89 0 0
89.1 0 0
89.2 0 0
89.3 0 0
89.4 0 0
89.5 0 0
89.6 0 0
89.7 0 0
89.8 0 0
89.9 0 0
90 0 0
90.1 0 0
90.2 0 0
90.3 0 0
90.4 0 0
90.5 0 0
90.6 0 0
90.7 0 0
90.8 0 0
90.9 0 0
91 0 0
91.1 0 0
91.2 0 0
91.3 0 0
91.4 0 0
91.5 0 0
91.6 0 0
91.7 0 0
91.8 0 0
91.9 0 0
92 0 0
92.1 0 0
92.2 0 0
92.3 0 0
92.4 0 0
92.5 0 0
92.6 0 0
92.7 0 0
92.8 0 0
92.9 0 0
93 0 0
93.1 0 0
93.2 0 0
93.3 0 0
93.4 0 0
93.5 0 0
93.6 0 0
93.7 0 0
93.8 0 0
93.9 0 0
94 0 0
94.1 0 0
94.2 0 0
94.3 0 0
94.4 0 0
94.5 0 0
94.6 0 0
94.7 0 0
94.8 0 0
94.9 0 0
95 0 0
95.1 0 0
95.2 0 0
95.3 0 0
95.4 0 0
95.5 0 0
95.6 0 0
95.7 0 0
95.8 0 0
95.9 0 0
96 0 0
96.1 0 0
96.2 0 0
96.3 0 0
96.4 0 0
96.5 0 0
96.6 0 0
96.7 0 0
96.8 0 0
96.9 0 0
97 0 0
97.1 0 0
97.2 0 0
97.3 0 0
97.4 0 0
97.5 0 0
97.6 0 0
97.7 0 0
97.8 0 0
97.9 0 0
98 0 0
98.1 0 0
98.2 0 0
98.3 0 0
98.4 0 0
98.5 0 0
98.6 0 0
98.7 0 0
98.8 0 0
98.9 0 0
99 0 0
99.1 0 0
99.2 0 0
99.3 0 0
99.4 0 0
99.5 0 0
99.6 0 0
99.7 0 0
99.8 0 0
99.9 0 0
100 0 0
100.1 0 0
100.2 0 0
100.3 0 0
100.4 0 0
100.5 0 0
100.6 0 0
100.7 0 0
100.8 0 0
100.9 0 0
101 0 0
101.1 0 0
101.2 0 0
101.3 0 0
101.4 0 0
101.5 0 0
101.6 0 0
101.7 0 0
101.8 0 0
101.9 0 0
102 0 0
102.1 0 0
102.2 0 0
102.3 0 0
102.4 0 0
102.5 0 0
102.6 0 0
102.7 0 0
102.8 0 0
102.9 0 0
103 0 0
103.1 0 0
103.2 0 0
103.3 0 0
103.4 0 0
103.5 0 0
103.6 0 0
103.7 0 0
103.8 0 0
103.9 0 0
104 0 0
104.1 0 0
104.2 0 0
104.3 0 0
104.4 0 0
104.5 0 0
104.6 0 0
104.7 0 0
104.8 0 0
104.9 0 0
105 0 0
105.1 0 0
105.2 0 0
105.3 0 0
105.4 0 0
105.5 0 0
105.6 0 0
105.7 0 0
105.8 0 0
105.9 0 0
106 0 0
106.1 0 0
106.2 0 0
106.3 0 0
106.4 0 0
106.5 0 0
106.6 0 0
106.7 0 0
106.8 0 0
106.9 0 0
107 0 0
107.1 0 0
107.2 0 0
107.3 0 0
107.4 0 0
107.5 0 0
107.6 0 0
107.7 0 0
107.8 0 0
107.9 0 0
108 0 0
108.1 0 0
108.2 0 0
108.3 0 0
108.4 0 0
108.5 0 0
108.6 0 0
108.7 0 0
108.8 0 0
108.9 0 0
109 0 0
109.1 0 0
109.2 0 0
109.3 0 0
109.4 0 0
109.5 0 0
109.6 0 0
109.7 0 0
109.8 0 0
109.9 0 0
110 0 0
110.1 0 0
110.2 0 0
110.3 0 0
110.4 0 0
110.5 0 0
110.6 0 0
110.7 0 0
110.8 0 0
110.9 0 0
111 0 0
111.1 0 0
111.2 0 0
111.3 0 0
111.4 0 0
111.5 0 0
111.6 0 0
111.7 0 0
111.8 0 0
111.9 0 0
112 0 0
[...]
POINT_DATA 83304

SCALARS pressure float 1
LOOKUP_TABLE default
0
0
0
0
0
0
0
0
0
0
0
0
0
0
0
0
0
0
0
0
0
0
0
0
0
0
0
0
0
0
0
0
0
0
0
0
0
0
0
0
0
0
0
0
0
0
0
0
0
0
0
0
0
0
0
0
0
0
0
0
0
0
0
0
0
0
0
0
0
0
0
0
0
0
0
0
0
0
0
0
0
0
0
0
0
0
0
0
0
0
0
0
0
0
0
0
0
0
0
0
0
0
0
0
0
0
0
0
0
0
0
0
0
0
0
0
0
0
0
0
0
0
0
0
0
0
0
0
0
0
0
0
0
0
0
0
0
0
0
0
0
0
0
0
0
0
0
0
0
0
0
0
0
0
0
0
0
0
0
0
0
0
0
0
0
0
0
0
0
0
0
0
0
0
0
0
0
0
0
0
0
0
0
0
0
0
0
0
0
0
0
0
0
0
0
0
0
0
0
0
0
0
0
0
0
0
0
0
0
0
0
0
0
0
0
0
0
0
0
0
0
0
0
0
0
0
0
0
0
0
0
0
0
0
0
0
0
0
0
0
0
0
0
0
0
0
0
0
0
0
0
0
0
0
0
0
0
0
0
0
0
0
0
0
0
0
0
0
0
0
0
0
0
0
0
0
0
0
0
0
0
0
0
0
0
0
0
0
0
0
0
0
0
0
0
0
0
0
0
0
0
0
0
0
0
0
0
0
0
0
0
0
0
0
0
0
0
0
0
0
0
0
0
0
0
0
0
0
0
0
0
0
0
0
0
0
0
0
0
0
0
0
0
0
0
0
0
0
0
0
0
0
0
0
0
0
0
0
0
0
0
0
0
0
0
0
0
0
0
0
0
0
0
0
0
0
0
0
0
0
0
0
0
0
0
0
0
0
0
0
0
0
0
0
0
0
0
0
0
0
0
0
0
0
0
0
0
0
0
0
0
0
0
0
0
0
0
0
0
0
0
0
0
0
0
0
0
0
0
0
0
0
0
0
0
0
0
0
0
0
0
0
0
0
0
0
0
0
0
0
0
0
0
0
0
0
0
0
0
0
0
0
0
0
0
0
0
0
0
0
0
0
0
0
0
0
0
0
0
0
0
0
0
0
0
0
0
0
0
0
0
0
0
0
0
0
0
0
0
0
0
0
0
0
0
0
0
0
0
0
0
0
0
0
0
0
0
0
0
0
0
0
0
0
0
0
0
0
0
0
0
0
0
0
0
0
0
0
0
0
0
0
0
0
0
0
0
0
0
0
0
0
0
0
0
0
0
0
0
0
0
0
0
0
0
0
0
0
0
0
0
0
0
0
0
0
0
0
0
0
0
0
0
0
0
0
0
0
0
0
0
0
0
0
0
0
0
0
0
0
0
0
0
0
0
0
0
0
0
0
0
0
0
0
0
0
0
0
0
0
0
0
0
0
0
0
0
0
0
0
0
0
0
0
0
0
0
0
0
0
0
0
0
0
0
0
0
0
0
0
0
0
0
0
0
0
0
0
0
0
0
0
0
0
0
0
0
0
0
0
0
0
0
0
0
0
0
0
0
0
0
0
0
0
0
0
0
0
0
0
0
0
0
0
0
0
0
0
0
0
0
0
0
0
0
0
0
0
0
0
0
0
0
0
0
0
0
0
0
0
0
0
0
0
0
0
0
0
0
0
0
0
0
0
0
0
0
0
0
0
0
0
0
0
0
0
0
0
0
0
0
0
0
0
0
0
0
0
0
0
0
0
0
0
0
0
0
0
0
0
0
0
0
0
0
0
0
0
0
0
0
0
0
0
0
0
0
0
0
0
0
0
0
0
0
0
0
0
0
0
0
0
0
0
0
0
0
0
0
0
0
0
0
0
0
0
0
0
0
0
0
0
0
0
0
0
0
0
0
0
0
0
0
0
0
0
0
0
0
0
0
0
0
0
0
0
0
0
0
0
0
0
0
0
0
0
0
0
0
0
0
0
0
0
0
0
0
0
0
0
0
0
0
0
0
0
0
0
0
0
0
0
0
0
0
0
0
0
0
0
0
0
0
0
0
0
0
0
0
0
0
0
0
0
0
0
0
0
0
0
0
0
0
0
0
0
0
0
0
0
0
0
0
0
0
0
0
0
0
0
0
0
0
0
0
0
0
0
0
0
0
0
0
0
0
0
0
0
0
0
0
0
0
0
0
0
0
0
0
0
0
0
0
0
0
0
0
0
0
0
0
0
0
0
0
0
0
0
0
0
0
0
0
0
0
0
0
0
0
0
0
0
0
0
0
0
0
0
0
0
0
0
0
0
0
0
0
0
0
0
0
0
0
0
0
0
0
0
0
0
0
0
0
0
0
0
0
0
0
0
0
0
0
0
0
0
0
0
0
0
0
0
0
0
0
0
0
0
0
0
0
0
0
0
0
0
0
0
0
0
0
0
0
0
0
0
0
0
0
0
0
0
0
0
0
0
0
0
0
0
0
0
0
0
0
0
0
0
0
0
0
0
0
0
0
0
0
0
0
0
0
0
0
0
0
0
0
0
0
0
0
0
0
0
0
0
0
0
0
0
0
0
0
0
0
0
0
0
0
0
0
0
0
0
0
0
0
0
0
0
0
0
0
0
0
0
0
0
0
0
0
0
0
0
0
0
0
0
0
0
0
0
0
0
0
0
0
0
0
0
0
0
0
0
0
0
0
0
0
0
0
0
0
0
0
0
0
0
0
0
0
0
0
0
0
0
0
0
0
0
0
0
0
0
0
0
0
0
0
0
0
0
0
0
0
0
0
0
0
0
0
0
0
0
0
0
0
0
0
0
0
0
0
0
0
0
0
0
0
0
0
0
0
0
0
0
0
0
0
0
0
0
0
0
0
0
0
0
0
0
0
0
0
0
0
0
0
0
0
0
0
0
0
0
0
0
0
0
0
0
0
0
0
0
0
0
0
0
0
0
0
0
0
0
0
0
0
0
0
0
0
0
0
0
0
0
0
0
0
0
0
0
0
0
0
0
0
0
0
0
0
0
0
0
0
0
0
0
0
0
0
0
0
0
0
0
0
0
0
0
0
0
0
0
0
0
0
0
0
0
0
0
0
0
0
0
0
0
0
0
0
0
0
0
0
0
0
0
0
0
0
0
0
0
0
0
0
0
0
0
0
0
0
0
0
0
0
0
0
0
0
0
0
0
0
0
0
0
0
0
0
0
0
0
0
0
0
0
0
0
0
0
0
0
0
0
0
0
0
0
0
0
0
0
0
0
0
0
0
0
0
0
0
0
0
0
0
0
0
0
0
0
0
0
0
0
0
0
0
0
0
0
0
0
0
0
0
0
0
0
0
0
0
0
0
0
0
0
0
0
0
0
0
0
0
0
0
0
0
0
0
0
0
0
0
0
0
0
0
0
0
0
0
0
0
0
0
0
0
0
0
0
0
0
0
0
0
0
0
0
0
0
0
0
0
0
0
0
0
0
0
0
0
0
0
0
0
0
0
0
0
0
0
0
0
0
0
0
0
0
0
0
0
0
0
0
0
0
0
0
0
0
0
0
0
0
0
0
0
0
0
0
0
0
0
0
0
0
0
0
0
0
0
0
0
0
0
0
0
0
0
0
0
0
0
0
0
0
0
0
0
0
0
0
0
0
0
0
0
0
0
0
0
0.0776415
0.052903
0.0436505
0.0357426
0.03048
0.0271088
0.0248019
0.023116
0.0218008
0.0207277
0.0198235
0.0190436
0.0183596
0.0177519
0.0172067
0.0167134
0.0162644
0.0158532
0.015475
0.0151254
0.0148012
0.0144994
0.0142175
0.0139534
0.0137053
0.0134716
0.0132509
0.0130421
0.0128439
0.0126556
0.0124762
0.012305
0.0121413
0.0119845
0.011834
0.0116891
0.0115491
0.0114135
0.0112815
0.0111523
0.0110251
0.0108991
0.0107735
0.010648
0.0105224
0.0103972
0.0102739
0.0101551
0.0100448
0.0099487
0.00987386
0.00982875
0.00982252
0.00986405
0.00996055
0.0101158
0.010328
0.0105877
0.0108754
0.0111599
0.0113972
0.0115306
0.0114924
0.011208
0.010603
0.00961385
0.00820038
0.006358
0.00413608
0.00165265
-0.000895044
-0.00323743
-0.00506467
-0.00607022
-0.00599255
-0.00464555
-0.00193961
0.00212084
0.00745313
0.0139084
0.0213001
0.0294218
0.0380608
0.0470067
0.0560579
0.065016
0.0736942
0.0819118
0.0894705
0.0961698
0.101841
0.106356
0.109613
0.111527
0.112046
0.11117
0.108957
0.105519
0.101007
0.0956115
0.0895429
0.0830249
0.0762761
0.0694947
0.0628476
0.0564644
0.0504381
0.0448285
0.0396679
0.0349671
0.0307205
0.0269111
0.0235143
0.0205008
0.0178389
0.0154965
0.0134418
0.0116444
0.0100759
0.00870998
0.00752262
0.00649209
0.00559887
0.00482559
0.00415684
0.00357902
0.00308015
0.00264975
0.00227867
0.00195889
0.00168347
0.00144635
0.0012423
0.00106676
0.000915802
0.000786026
0.000674491
0.000578657
0.000496335
0.000425637
0.000364936
0.00031283
0.00026811
0.000229738
0.000196819
0.000168584
0.000144371
0.000123612
0.000105816
9.05642e-05
7.7495e-05
6.62983e-05
5.67077e-05
4.84942e-05
4.14616e-05
3.54413e-05
3.02885e-05
2.58791e-05
2.21067e-05
1.88798e-05
1.61202e-05
1.37606e-05
1.17434e-05
1.00195e-05
8.54646e-06
7.28814e-06
6.21349e-06
5.2959e-06
4.51264e-06
3.84429e-06
3.27429e-06
2.7885e-06
2.37472e-06
2.02238e-06
1.72225e-06
1.46641e-06
1.24815e-06
1.06189e-06
9.03013e-07
7.6752e-07
6.51751e-07
5.52184e-07
4.65553e-07
3.89225e-07
3.21705e-07
2.62953e-07
2.14244e-07
1.77435e-07
1.53793e-07
1.4277e-07
1.41259e-07
1.43736e-07
1.43414e-07
1.34126e-07
1.12335e-07
7.85199e-08
3.73973e-08
-3.23207e-09
-3.47008e-08
-5.00779e-08
-4.63221e-08
-2.52867e-08
6.73977e-09
4.08001e-08
6.77693e-08
8.08136e-08
7.70858e-08
5.82115e-08
2.95179e-08
-1.6698e-09
-2.80992e-08
-4.44198e-08
-4.83011e-08
-4.06284e-08
-2.48505e-08
-5.77285e-09
1.1804e-08
2.42241e-08
2.96416e-08
2.81265e-08
2.12891e-08
1.16088e-08
1.69113e-09
-6.3503e-09
-1.1264e-08
-1.27492e-08
-1.13056e-08
-7.93529e-09
-3.80251e-09
5.92528e-11
2.93714e-09
4.50862e-09
4.80682e-09
4.11727e-09
2.84814e-09
1.41028e-09
1.30897e-10
-7.89836e-10
-1.28241e-09
-1.38293e-09
-1.19355e-09
-8.41325e-10
-4.4489e-10
-9.33901e-11
1.61688e-10
3.04353e-10
3.45467e-10
3.11581e-10
2.34419e-10
1.42937e-10
5.86985e-11
-5.67261e-12
-4.57248e-11
-6.3092e-11
-6.29774e-11
-5.18667e-11
-3.58396e-11
-1.95878e-11
-6.06857e-12
3.38157e-12
8.67048e-12
1.04854e-11
9.86315e-12
7.86454e-12
5.37278e-12
3.00546e-12
1.11064e-12
-1.86058e-13
-9.13134e-13
-1.18491e-12
-1.14603e-12
-9.33544e-13
-6.56306e-13
-3.87996e-13
-1.69372e-13
-1.53475e-14
7.64357e-14
1.17726e-13
1.23571e-13
1.08326e-13
8.3533e-14
5.72247e-14
3.41385e-14
1.63967e-14
4.32558e-15
-2.79194e-15
-6.12841e-15
-6.91566e-15
-6.21942e-15
-4.84486e-15
-3.32841e-15
-1.9773e-15
-9.27927e-16
-2.04566e-16
2.31453e-16
4.45718e-16
5.07517e-16
4.77122e-16
4.00605e-16
3.09421e-16
2.22508e-16
1.49353e-16
9.30606e-17
5.2933e-17
2.63849e-17
1.02217e-17
1.38905e-18
-2.66344e-18
-3.8693e-18
-3.57832e-18
-2.65775e-18
-1.61297e-18
-6.99871e-19
-1.65704e-20
4.28792e-19
6.71914e-19
7.63645e-19
7.54006e-19
6.84713e-19
5.86894e-19
4.81629e-19
3.81752e-19
2.93976e-19
2.20853e-19
1.62363e-19
1.1708e-19
8.2964e-20
5.78572e-20
3.97571e-20
2.69466e-20
1.80302e-20
1.19185e-20
7.78848e-21
5.03421e-21
3.22013e-21
2.03924e-21
1.27905e-21
7.94852e-22
4.89553e-22
2.9892e-22
1.80995e-22
1.08703e-22
6.47707e-23
3.8297e-23
2.24742e-23
1.30923e-23
7.57238e-24
4.34911e-24
2.48075e-24
1.40554e-24
7.91103e-25
4.42393e-25
2.45821e-25
1.35742e-25
7.44964e-26
4.06377e-26
2.20361e-26
1.18794e-26
6.36709e-27
3.39323e-27
1.79823e-27
9.47695e-28
4.96725e-28
2.58951e-28
1.34277e-28
6.92624e-29
3.55412e-29
1.81439e-29
9.2155e-30
4.65716e-30
2.34186e-30
1.17182e-30
5.83506e-31
2.89156e-31
1.42608e-31
7.00005e-32
3.41997e-32
1.66314e-32
8.05072e-33
3.87937e-33
1.86091e-33
8.88679e-34
4.22509e-34
1.99992e-34
9.42528e-35
4.42277e-35
2.06646e-35
9.61411e-36
4.45404e-36
2.05483e-36
9.44033e-37
4.31919e-37
1.96805e-37
8.93096e-38
4.03648e-38
1.81703e-38
8.14686e-39
3.63827e-39
1.61842e-39
7.17114e-40
3.16518e-40
1.39166e-40
6.09538e-41
2.65959e-41
1.15607e-41
5.0063e-42
2.15986e-42
9.2837e-43
3.97567e-43
1.69631e-43
7.21128e-44
3.05452e-44
1.28916e-44
5.42137e-45
2.27176e-45
9.48577e-46
3.94684e-46
1.63645e-46
6.76141e-47
2.78396e-47
1.14232e-47
4.67112e-48
1.90356e-48
7.73101e-49
3.12921e-49
1.26232e-49
5.07517e-50
2.03368e-50
8.12217e-51
3.23316e-51
1.28279e-51
5.07298e-52
1.99966e-52
7.85676e-53
3.07701e-53
1.20121e-53
4.67437e-54
1.8132e-54
7.01118e-55
2.70251e-55
1.03844e-55
3.97775e-56
1.51895e-56
5.78232e-57
2.19443e-57
8.30248e-58
3.13159e-58
1.17761e-58
4.41487e-59
1.65015e-59
6.14925e-60
2.28465e-60
8.46297e-61
3.12561e-61
1.15096e-61
4.22578e-62
1.54696e-62
5.64649e-63
2.05501e-63
7.45741e-64
2.69841e-64
9.73588e-65
3.50266e-65
1.25655e-65
4.49492e-66
1.60337e-66
5.70319e-67
2.02292e-67
7.15519e-68
2.52377e-68
8.87702e-69
3.11372e-69
1.08916e-69
3.79932e-70
1.32168e-70
4.58522e-71
1.58639e-71
5.47365e-72
1.88351e-72
6.4638e-73
2.21227e-73
7.55136e-74
2.5707e-74
8.72811e-75
2.95554e-75
9.9817e-76
3.36223e-76
1.12956e-76
3.78487e-77
1.26491e-77
4.21636e-78
1.40181e-78
4.64855e-79
1.53754e-79
5.07246e-80
1.66916e-80
5.47859e-81
1.79363e-81
5.85727e-82
1.90791e-82
6.19906e-83
2.0091e-83
6.49512e-84
2.09453e-84
6.73759e-85
2.16194e-85
6.91998e-86
2.2095e-86
7.03741e-87
2.23597e-87
7.08687e-88
2.2407e-88
7.0673e-89
2.22367e-89
6.97967e-90
2.1855e-90
6.82688e-91
2.12741e-91
6.61361e-92
2.05112e-92
6.34612e-93
1.95882e-93
6.03189e-94
1.85305e-94
5.67932e-95
1.73655e-95
5.29737e-96
1.6122e-96
4.89516e-97
1.48288e-97
4.48164e-98
1.35134e-98
4.06529e-99
1.22017e-99
3.65387e-100
1.09167e-100
3.25418e-101
9.67839e-102
2.87196e-102
8.50296e-103
2.51178e-103
7.40313e-104
2.17707e-104
6.3879e-105
1.87013e-105
5.46282e-106
1.5922e-106
4.63034e-107
1.34359e-107
3.89012e-108
1.12384e-108
3.23957e-109
9.31797e-110
2.67427e-110
7.65846e-111
2.18843e-111
6.23996e-112
1.77537e-112
5.04034e-113
1.42788e-113
4.03639e-114
1.13857e-114
3.20479e-115
9.00141e-116
2.52288e-116
7.05601e-117
1.96925e-117
5.48433e-118
1.52416e-118
4.22689e-119
1.16977e-119
3.23048e-120
8.90281e-121
2.44839e-121
6.71937e-122
1.84024e-122
5.02944e-123
1.37172e-123
3.73351e-124
1.01408e-124
2.74876e-125
7.43548e-126
2.00721e-126
5.40742e-127
1.45379e-127
3.9006e-128
1.04443e-128
2.79093e-129
7.44286e-130
1.98087e-130
5.26136e-131
1.39466e-131
3.68951e-132
9.74095e-133
2.56665e-133
6.74945e-134
1.77136e-134
4.63965e-135
1.21284e-135
3.1642e-136
8.2389e-137
2.14102e-137
5.5529e-138
1.43737e-138
3.71337e-139
9.5746e-140
2.46393e-140
6.32837e-141
1.62223e-141
4.15044e-142
1.05983e-142
2.70111e-143
6.87088e-144
1.74441e-144
4.42032e-145
1.11796e-145
2.8221e-146
7.11033e-147
1.78806e-147
4.48797e-148
1.12433e-148
2.81138e-149
7.01658e-150
1.74789e-150
4.34595e-151
1.07855e-151
2.67168e-152
6.60566e-153
1.63019e-153
4.01561e-154
9.8732e-155
2.42303e-155
5.93547e-156
1.45127e-156
3.54195e-157
8.6285e-158
2.09812e-158
5.09248e-159
1.23377e-159
2.98361e-160
7.2021e-161
1.73534e-161
4.17371e-162
1.00201e-162
2.40123e-163
5.74395e-164
1.37152e-164
3.26899e-165
7.77757e-166
1.84711e-166
4.3789e-167
1.03624e-167
2.44782e-168
5.77198e-169
1.35862e-169
3.19226e-170
7.48736e-171
1.75303e-171
4.09718e-172
9.55901e-173
2.22626e-173
5.17579e-174
1.2012e-174
2.78286e-175
6.43588e-176
1.48582e-176
3.42428e-177
7.87799e-178
1.80928e-178
4.14806e-179
9.49362e-180
2.16904e-180
4.94714e-181
1.1264e-181
2.56026e-182
5.80938e-183
1.31592e-183
2.9757e-184
6.71745e-185
1.51384e-185
3.40577e-186
7.64914e-187
1.71503e-187
3.83881e-188
8.578e-189
1.91356e-189
4.26153e-190
9.47452e-191
2.1029e-191
4.65964e-192
1.03076e-192
2.27634e-193
5.0187e-194
1.10464e-194
2.42732e-195
5.32489e-196
1.1662e-196
2.54987e-197
5.566e-198
1.21297e-198
2.63902e-199
5.73217e-200
1.24303e-200
2.69111e-201
5.81659e-202
1.25515e-202
2.70404e-203
5.81596e-204
1.24888e-204
2.67742e-205
5.73068e-206
1.22459e-206
2.6126e-207
5.56485e-208
1.1834e-208
2.51253e-209
5.32587e-210
1.12713e-210
2.38154e-211
5.02397e-212
1.05814e-212
2.22507e-213
4.67144e-214
9.79192e-215
2.04924e-215
4.28184e-216
8.9326e-217
1.86054e-217
3.86912e-218
8.03341e-219
1.66534e-219
3.44686e-220
7.12297e-221
1.46966e-221
3.02756e-222
6.22714e-223
1.27881e-223
2.62207e-224
5.36794e-225
1.09722e-225
2.23927e-226
4.56295e-227
9.28351e-228
1.88585e-228
3.82498e-229
7.74609e-230
1.56627e-230
3.16215e-231
6.3743e-232
1.28297e-232
2.5783e-233
5.17352e-234
1.03652e-234
2.0735e-235
4.14162e-236
8.25992e-237
1.64483e-237
3.27046e-238
6.49289e-239
1.2871e-239
2.54757e-240
5.03487e-241
9.93562e-242
1.95771e-242
3.85167e-243
7.56657e-244
1.48422e-244
2.90701e-245
5.68521e-246
1.11019e-246
2.16473e-247
4.21465e-248
8.1936e-249
1.59054e-249
3.08296e-250
5.96692e-251
1.15316e-251
2.2253e-252
4.28792e-253
8.25023e-254
1.58506e-254
3.04081e-255
5.82499e-256
1.1142e-256
2.12813e-257
4.05881e-258
7.72975e-259
1.46994e-259
2.79126e-260
5.29263e-261
1.0021e-261
1.89462e-262
3.57689e-263
6.7431e-264
1.26937e-264
2.3861e-265
4.47882e-266
8.39488e-267
1.57124e-267
2.93661e-268
5.4806e-269
1.02138e-269
1.90076e-270
3.53222e-271
6.55464e-272
1.2146e-272
2.24748e-273
4.15284e-274
7.66262e-275
1.41187e-275
2.59775e-276
4.77294e-277
8.75713e-278
1.60445e-278
2.93547e-279
5.36315e-280
9.7848e-281
1.78269e-281
3.24332e-282
5.89245e-283
1.06905e-283
1.93682e-284
3.50412e-285
6.33085e-286
1.1422e-286
2.05787e-287
3.70248e-288
6.6522e-289
1.19354e-289
2.13849e-290
3.82631e-291
6.8368e-292
1.21991e-292
2.17373e-293
3.86799e-294
6.87338e-295
1.21972e-295
2.1615e-296
3.82522e-297
6.76027e-298
1.19311e-298
2.10283e-299
3.70115e-300
6.50548e-301
1.14191e-301
2.00169e-302
3.50406e-303
6.12577e-304
1.06945e-304
1.86456e-305
3.24643e-306
5.64484e-307
9.80194e-308
1.69977e-308
2.94363e-309
5.09092e-310
8.79279e-311
1.51662e-311
2.61244e-312
4.49405e-313
7.72057e-314
1.32459e-314
2.26955e-315
3.88346e-316
6.63623e-317
1.13253e-317
1.93021e-318
3.28539e-319
5.58492e-320
9.48112e-321
1.60571e-321
2.71736e-322
3.95253e-323
0
0
0
0
0
0
0
0
0
0
0
0
0
0
0
0
0
0
0
0
0
0
0
0
0
0
0
0
0
0
0
0
0
0
0
0
0
0
0
0
0
0
0
0
0
0
0
0
0
0
0
0
0
0
0
0
0
0
0
0
0
0
0
0
0
0
0
0
0
0
0
0
0
0
0
0
0
0
0
0
0
0
0
0
0
0
0
0
0
0
0
0
0
0
0
0
0
0
0
0
0
0
0
0
0
0
0
0
0
0
0
0
0
0
0
0
0
0
0
0
0
0
0
0
0
0
0
0
0
0
0
0
0
0
0
0
0
0
0
0
0
0
0
0
0
0
0
0
0
0
0
0
0
0
0
0
0
0
0
0
0
0
0
0
0
0
0
0
0
0
0
0
0
0
0
0
0
0
0
0
0
0
0
0
0
0
0
0
0
0
0
0
0
0
0
0
0
0
0
0
0
0
0
0
0
0
0
0
0
0
0
0
0
0
0
0
0
0
0
0
0
0
0
0
0
0
0
0
0
0
0
0
0
0
0
0
0
0
0
0
0
0
0
0
0
0
0
0
0
0
0
0
0
0
0
0
0
0
0
0
0
0
0
0
0
0
0
0
0
0
0
0
0
0
0
0
0
0
0
0
0
0
0
0
0
0
0
0
0
0
0
0
0
0
0
0
0
0
0
0
0
0
0
0
0
0
0
0
0
0
0
0
0
0
0
0
0
0
0
0
0
0
0
0
0
0
0
0
0
0
0
0
0
0
0
0
0
0
0
0
0
0
0
0
0
0
0
0
0
0
0
0
0
0
0
0
0
0
0
0
0
0
0
0
0
0
0
0
0
0
0
0
0
0
0
0
0
0
0
0
0
0
0
0
0
0
0
0
0
0
0
0
0
0
0
0
0
0
0
0
0
0
0
0
0
0
0
0
0
0
0
0
0
0
0
0
0
0
0
0
0
0
0
0
0
0
0
0
0
0
0
0
0
0
0
0
0
0
0
0
0
0
0
0
0
0
0
0
0
0
0
0
0
0
0
0
0
0
0
0
0
0
0
0
0
0
0
0
0
0
0
0
0
0
0
0
0
0
0
0
0
0
0
0
0
0
0
0
0
0
0
0
0
0
0
0
0
0
0
0
0
0
0
0
0
0
0
0
0
0
0
0
0
0
0
0
0
0
0
0
0
0
0
0
0
0
0
0
0
0
0
0
0
0
0
0
0
0
0
0
0
0
0
0
0
0
0
0
0
0
0
0
0
0
0
0
0
0
0
0
0
0
0
0
0
0
0
0
0
0
0
0
0
0
0
0
0
0
0
0
0
0
0
0
0
0
0
0
0
0
0
0
0
0
0
0
0
0
0
0
0
0
0
0
0
0
0
0
0
0
0
0
0
0
0
0
0
0
0
0
0
0
0
0
0
0
0
0
0
0
0
0
0
0
0
0
0
0
0
0
0
0
0
0
0
0
0
0
0
0
0
0
0
0
0
0
0
0
0
0
0
0
0
0
0
0
0
0
0
0
0
0
0
0
0
0
0
0
0
0
0
0
0
0
0
0
0
0
0
0
0
0
0
0
0
0
0
0
0
0
0
0
0
0
0
0
0
0
0
0
0
0
0
0
0
0
0
0
0
0
0
0
0
0
0
0
0
0
0
0.062787
0.0345542
0.0299574
0.025277
0.0221391
0.0200069
0.0184495
0.0172639
0.0163155
0.0155312
0.0148652
0.0142884
0.013781
0.0133294
0.0129237
0.0125563
0.0122216
0.011915
0.0116326
0.0113716
0.0111294
0.0109038
0.010693
0.0104954
0.0103097
0.0101348
0.00996952
0.00981307
0.00966464
0.00952353
0.00938912
0.00926084
0.00913819
0.00902069
0.00890787
0.00879929
0.00869447
0.0085929
0.00849404
0.00839731
0.00830207
0.0082077
0.00811365
0.00801948
0.00792507
0.00783074
0.00773746
0.00764707
0.00756249
0.00748783
0.00742839
0.00739055
0.00738131
0.00740763
0.00747539
0.00758807
0.0077452
0.00794059
0.00816083
0.00838369
0.00857739
0.00870049
0.008703
0.00852911
0.0081215
0.00742936
0.00641682
0.00507166
0.00341913
0.00153501
-0.000444208
-0.0023203
-0.0038532
-0.0047959
-0.00493012
-0.00409379
-0.00220342
0.000742179
0.00467476
0.00946821
0.0149611
0.020971
0.0273105
0.033796
0.0402512
0.0465128
0.0524381
0.0579045
0.0627951
0.0670071
0.0704684
0.0731386
0.0749946
0.0760227
0.0762228
0.0756169
0.0742489
0.0721812
0.0694892
0.0662587
0.0625856
0.0585752
0.0543391
0.0499895
0.0456321
0.0413591
0.0372459
0.033349
0.029707
0.0263429
0.0232663
0.0204766
0.0179657
0.0157199
0.0137221
0.0119532
0.0103933
0.00902246
0.00782143
0.00677191
0.00585687
0.00506062
0.00436894
0.00376898
0.00324925
0.00279954
0.00241079
0.00207504
0.00178527
0.00153537
0.00131998
0.00113443
0.000974663
0.00083716
0.000718862
0.000617124
0.000529657
0.000454482
0.000389889
0.000334404
0.000286755
0.000245844
0.000210727
0.000180589
0.000154731
0.000132549
0.000113524
9.72105e-05
8.32246e-05
7.12365e-05
6.09628e-05
5.21602e-05
4.46193e-05
3.81607e-05
3.26301e-05
2.78951e-05
2.3842e-05
2.03733e-05
1.74054e-05
1.48664e-05
1.26949e-05
1.08379e-05
9.25032e-06
7.89329e-06
6.73363e-06
5.74289e-06
4.89665e-06
4.174e-06
3.55701e-06
3.0304e-06
2.58115e-06
2.19816e-06
1.87194e-06
1.59423e-06
1.35781e-06
1.15641e-06
9.84662e-07
8.38097e-07
7.13084e-07
6.06595e-07
5.15907e-07
4.38335e-07
3.71177e-07
3.11951e-07
2.58854e-07
2.11251e-07
1.69872e-07
1.36501e-07
1.13126e-07
1.00779e-07
9.84926e-08
1.02865e-07
1.08514e-07
1.094e-07
1.00646e-07
8.02186e-08
4.98497e-08
1.47922e-08
-1.75846e-08
-3.99541e-08
-4.72553e-08
-3.82644e-08
-1.60081e-08
1.30951e-08
4.10727e-08
6.06236e-08
6.7047e-08
5.93284e-08
4.013e-08
1.4779e-08
-1.0365e-08
-2.96449e-08
-3.9455e-08
-3.88873e-08
-2.95937e-08
-1.50162e-08
7.19149e-10
1.39015e-08
2.20463e-08
2.42622e-08
2.11632e-08
1.44342e-08
6.22834e-09
-1.42305e-09
-7.04532e-09
-9.92973e-09
-1.01178e-08
-8.21665e-09
-5.12985e-09
-1.78661e-09
1.06636e-09
2.97892e-09
3.81571e-09
3.7002e-09
2.91734e-09
1.80827e-09
6.8288e-10
-2.35699e-10
-8.31662e-10
-1.0882e-09
-1.06078e-09
-8.43551e-10
-5.3815e-10
-2.30899e-10
1.95196e-11
1.84686e-10
2.62038e-10
2.66697e-10
2.22491e-10
1.54317e-10
8.29377e-11
2.24198e-11
-2.01889e-11
-4.36916e-11
-5.08507e-11
-4.6417e-11
-3.55009e-11
-2.24817e-11
-1.04659e-11
-1.19449e-12
4.75501e-12
7.62513e-12
8.11411e-12
7.06943e-12
5.2747e-12
3.33346e-12
1.63279e-12
3.61573e-13
-4.42475e-13
-8.3752e-13
-9.2776e-13
-8.26002e-13
-6.30353e-13
-4.13352e-13
-2.20258e-13
-7.28978e-14
2.40096e-14
7.62586e-14
9.45916e-14
9.07062e-14
7.48521e-14
5.47411e-14
3.53778e-14
1.94295e-14
7.82871e-15
3.98355e-16
-3.61859e-15
-5.173e-15
-5.16735e-15
-4.33264e-15
-3.1903e-15
-2.06615e-15
-1.12979e-15
-4.41042e-16
7.75864e-18
2.58485e-16
3.64288e-16
3.75779e-16
3.34253e-16
2.69659e-16
2.01356e-16
1.40187e-16
9.0895e-17
5.43199e-17
2.91405e-17
1.3103e-17
3.79409e-18
-9.37347e-19
-2.80352e-18
-3.05217e-18
-2.52139e-18
-1.72668e-18
-9.51261e-19
-3.24476e-19
1.17293e-19
3.87341e-19
5.20411e-19
5.5596e-19
5.29476e-19
4.68958e-19
3.94386e-19
3.18698e-19
2.49341e-19
1.89846e-19
1.41194e-19
1.02857e-19
7.35522e-20
5.17171e-20
3.58055e-20
2.44365e-20
1.64556e-20
1.09428e-20
7.19102e-21
4.6726e-21
3.00377e-21
1.91125e-21
1.20419e-21
7.51556e-22
4.64798e-22
2.8493e-22
1.73182e-22
1.04393e-22
6.24229e-23
3.70353e-23
2.1806e-23
1.27439e-23
7.3939e-24
4.2595e-24
2.43682e-24
1.38462e-24
7.81514e-25
4.38227e-25
2.44157e-25
1.35175e-25
7.43749e-26
4.06729e-26
2.21092e-26
1.19474e-26
6.41858e-27
3.42856e-27
1.82107e-27
9.61864e-28
5.05252e-28
2.63962e-28
1.37164e-28
7.08984e-29
3.6455e-29
1.86478e-29
9.49016e-30
4.80531e-30
2.421e-30
1.21371e-30
6.05492e-31
3.00603e-31
1.48523e-31
7.30342e-32
3.57449e-32
1.74131e-32
8.44362e-33
4.07561e-33
1.95833e-33
9.36752e-34
4.46093e-34
2.11498e-34
9.98348e-35
4.69211e-35
2.19574e-35
1.02314e-35
4.74726e-36
2.19342e-36
1.00921e-36
4.62426e-37
2.11014e-37
9.58969e-38
4.34044e-38
1.95664e-38
8.78516e-39
3.92881e-39
1.75008e-39
7.76513e-40
3.432e-40
1.511e-40
6.62692e-41
2.89533e-41
1.26018e-41
5.46426e-42
2.36047e-42
1.01589e-42
4.35597e-43