# vtk DataFile Version 2.0
FlowField
ASCII
DATASET STRUCTURED_GRID
DIMENSIONS 1602 1 52
POINTS 83304 float
0 0 0
0.1 0 0
0.2 0 0
0.3 0 0
0.4 0 0
0.5 0 0
0.6 0 0
0.7 0 0
0.8 0 0
0.9 0 0
1 0 0
1.1 0 0
1.2 0 0
1.3 0 0
1.4 0 0
1.5 0 0
1.6 0 0
1.7 0 0
1.8 0 0
1.9 0 0
2 0 0
2.1 0 0
2.2 0 0
2.3 0 0
2.4 0 0
2.5 0 0
2.6 0 0
2.7 0 0
2.8 0 0
2.9 0 0
3 0 0
3.1 0 0
3.2 0 0
3.3 0 0
3.4 0 0
3.5 0 0
3.6 0 0
3.7 0 0
3.8 0 0
3.9 0 0
4 0 0
4.1 0 0
4.2 0 0
4.3 0 0
4.4 0 0
4.5 0 0
4.6 0 0
4.7 0 0
4.8 0 0
4.9 0 0
5 0 0
5.1 0 0
5.2 0 0
5.3 0 0
5.4 0 0
5.5 0 0
5.6 0 0
5.7 0 0
5.8 0 0
5.9 0 0
6 0 0
6.1 0 0
6.2 0 0
6.3 0 0
6.4 0 0
6.5 0 0
6.6 0 0
6.7 0 0
6.8 0 0
6.9 0 0
7 0 0
7.1 0 0
7.2 0 0
7.3 0 0
7.4 0 0
7.5 0 0
7.6 0 0
7.7 0 0
7.8 0 0
7.9 0 0
8 0 0
8.1 0 0
8.2 0 0
8.3 0 0
8.4 0 0
8.5 0 0
8.6 0 0
8.7 0 0
8.8 0 0
8.9 0 0
9 0 0
9.1 0 0
9.2 0 0
9.3 0 0
9.4 0 0
9.5 0 0
9.6 0 0
9.7 0 0
9.8 0 0
9.9 0 0
10 0 0
10.1 0 0
10.2 0 0
10.3 0 0
10.4 0 0
10.5 0 0
10.6 0 0
10.7 0 0
10.8 0 0
10.9 0 0
11 0 0
11.1 0 0
11.2 0 0
11.3 0 0
11.4 0 0
11.5 0 0
11.6 0 0
11.7 0 0
11.8 0 0
11.9 0 0
12 0 0
12.1 0 0
12.2 0 0
12.3 0 0
12.4 0 0
12.5 0 0
12.6 0 0
12.7 0 0
12.8 0 0
12.9 0 0
13 0 0
13.1 0 0
13.2 0 0
13.3 0 0
13.4 0 0
13.5 0 0
13.6 0 0
13.7 0 0
13.8 0 0
13.9 0 0
14 0 0
14.1 0 0
14.2 0 0
14.3 0 0
14.4 0 0
14.5 0 0
14.6 0 0
14.7 0 0
14.8 0 0
14.9 0 0
15 0 0
15.1 0 0
15.2 0 0
15.3 0 0
15.4 0 0
15.5 0 0
15.6 0 0
15.7 0 0
15.8 0 0
15.9 0 0
16 0 0
16.1 0 0
16.2 0 0
16.3 0 0
16.4 0 0
16.5 0 0
16.6 0 0
16.7 0 0
16.8 0 0
16.9 0 0
17 0 0
17.1 0 0
17.2 0 0
17.3 0 0
17.4 0 0
17.5 0 0
17.6 0 0
17.7 0 0
17.8 0 0
17.9 0 0
18 0 0
18.1 0 0
18.2 0 0
18.3 0 0
18.4 0 0
18.5 0 0
18.6 0 0
18.7 0 0
18.8 0 0
18.9 0 0
19 0 0
19.1 0 0
19.2 0 0
19.3 0 0
19.4 0 0
19.5 0 0
19.6 0 0
19.7 0 0
19.8 0 0
19.9 0 0
20 0 0
20.1 0 0
20.2 0 0
20.3 0 0
20.4 0 0
20.5 0 0
20.6 0 0
20.7 0 0
20.8 0 0
20.9 0 0
21 0 0
21.1 0 0
21.2 0 0
21.3 0 0
21.4 0 0
21.5 0 0
21.6 0 0
21.7 0 0
21.8 0 0
21.9 0 0
22 0 0
22.1 0 0
22.2 0 0
22.3 0 0
22.4 0 0
22.5 0 0
22.6 0 0
22.7 0 0
22.8 0 0
22.9 0 0
23 0 0
23.1 0 0
23.2 0 0
23.3 0 0
23.4 0 0
23.5 0 0
23.6 0 0
23.7 0 0
23.8 0 0
23.9 0 0
24 0 0
24.1 0 0
24.2 0 0
24.3 0 0
24.4 0 0
24.5 0 0
24.6 0 0
24.7 0 0
24.8 0 0
24.9 0 0
25 0 0
25.1 0 0
25.2 0 0
25.3 0 0
25.4 0 0
25.5 0 0
25.6 0 0
25.7 0 0
25.8 0 0
25.9 0 0
26 0 0
26.1 0 0
26.2 0 0
26.3 0 0
26.4 0 0
26.5 0 0
26.6 0 0
26.7 0 0
26.8 0 0
26.9 0 0
27 0 0
27.1 0 0
27.2 0 0
27.3 0 0
27.4 0 0
27.5 0 0
27.6 0 0
27.7 0 0
27.8 0 0
27.9 0 0
28 0 0
28.1 0 0
28.2 0 0
28.3 0 0
28.4 0 0
28.5 0 0
28.6 0 0
28.7 0 0
28.8 0 0
28.9 0 0
29 0 0
29.1 0 0
29.2 0 0
29.3 0 0
29.4 0 0
29.5 0 0
29.6 0 0
29.7 0 0
29.8 0 0
29.9 0 0
30 0 0
30.1 0 0
30.2 0 0
30.3 0 0
30.4 0 0
30.5 0 0
30.6 0 0
30.7 0 0
30.8 0 0
30.9 0 0
31 0 0
31.1 0 0
31.2 0 0
31.3 0 0
31.4 0 0
31.5 0 0
31.6 0 0
31.7 0 0
31.8 0 0
31.9 0 0
32 0 0
32.1 0 0
32.2 0 0
32.3 0 0
32.4 0 0
32.5 0 0
32.6 0 0
32.7 0 0
32.8 0 0
32.9 0 0
33 0 0
33.1 0 0
33.2 0 0
33.3 0 0
33.4 0 0
33.5 0 0
33.6 0 0
33.7 0 0
33.8 0 0
33.9 0 0
34 0 0
34.1 0 0
34.2 0 0
34.3 0 0
34.4 0 0
34.5 0 0
34.6 0 0
34.7 0 0
34.8 0 0
34.9 0 0
35 0 0
35.1 0 0
35.2 0 0
35.3 0 0
35.4 0 0
35.5 0 0
35.6 0 0
35.7 0 0
35.8 0 0
35.9 0 0
36 0 0
36.1 0 0
36.2 0 0
36.3 0 0
36.4 0 0
36.5 0 0
36.6 0 0
36.7 0 0
36.8 0 0
36.9 0 0
37 0 0
37.1 0 0
37.2 0 0
37.3 0 0
37.4 0 0
37.5 0 0
37.6 0 0
37.7 0 0
37.8 0 0
37.9 0 0
38 0 0
38.1 0 0
38.2 0 0
38.3 0 0
38.4 0 0
38.5 0 0
38.6 0 0
38.7 0 0
38.8 0 0
38.9 0 0
39 0 0
39.1 0 0
39.2 0 0
39.3 0 0
39.4 0 0
39.5 0 0
39.6 0 0
39.7 0 0
39.8 0 0
39.9 0 0
40 0 0
40.1 0 0
40.2 0 0
40.3 0 0
40.4 0 0
40.5 0 0
40.6 0 0
40.7 0 0
40.8 0 0
40.9 0 0
41 0 0
41.1 0 0
41.2 0 0
41.3 0 0
41.4 0 0
41.5 0 0
41.6 0 0
41.7 0 0
41.8 0 0
41.9 0 0
42 0 0
42.1 0 0
42.2 0 0
42.3 0 0
42.4 0 0
42.5 0 0
42.6 0 0
42.7 0 0
42.8 0 0
42.9 0 0
43 0 0
43.1 0 0
43.2 0 0
43.3 0 0
43.4 0 0
43.5 0 0
43.6 0 0
43.7 0 0
43.8 0 0
43.9 0 0
44 0 0
44.1 0 0
44.2 0 0
44.3 0 0
44.4 0 0
44.5 0 0
44.6 0 0
44.7 0 0
44.8 0 0
44.9 0 0
45 0 0
45.1 0 0
45.2 0 0
45.3 0 0
45.4 0 0
45.5 0 0
45.6 0 0
45.7 0 0
45.8 0 0
45.9 0 0
46 0 0
46.1 0 0
46.2 0 0
46.3 0 0
46.4 0 0
46.5 0 0
46.6 0 0
46.7 0 0
46.8 0 0
46.9 0 0
47 0 0
47.1 0 0
47.2 0 0
47.3 0 0
47.4 0 0
47.5 0 0
47.6 0 0
47.7 0 0
47.8 0 0
47.9 0 0
48 0 0
48.1 0 0
48.2 0 0
48.3 0 0
48.4 0 0
48.5 0 0
48.6 0 0
48.7 0 0
48.8 0 0
48.9 0 0
49 0 0
49.1 0 0
49.2 0 0
49.3 0 0
49.4 0 0
49.5 0 0
49.6 0 0
49.7 0 0
49.8 0 0
49.9 0 0
50 0 0
50.1 0 0
50.2 0 0
50.3 0 0
50.4 0 0
50.5 0 0
50.6 0 0
50.7 0 0
50.8 0 0
50.9 0 0
51 0 0
51.1 0 0
51.2 0 0
51.3 0 0
51.4 0 0
51.5 0 0
51.6 0 0
51.7 0 0
51.8 0 0
51.9 0 0
52 0 0
52.1 0 0
52.2 0 0
52.3 0 0
52.4 0 0
52.5 0 0
52.6 0 0
52.7 0 0
52.8 0 0
52.9 0 0
53 0 0
53.1 0 0
53.2 0 0
53.3 0 0
53.4 0 0
53.5 0 0
53.6 0 0
53.7 0 0
53.8 0 0
53.9 0 0
54 0 0
54.1 0 0
54.2 0 0
54.3 0 0
54.4 0 0
54.5 0 0
54.6 0 0
54.7 0 0
54.8 0 0
54.9 0 0
55 0 0
55.1 0 0
55.2 0 0
55.3 0 0
55.4 0 0
55.5 0 0
55.6 0 0
55.7 0 0
55.8 0 0
55.9 0 0
56 0 0
56.1 0 0
56.2 0 0
56.3 0 0
56.4 0 0
56.5 0 0
56.6 0 0
56.7 0 0
56.8 0 0
56.9 0 0
57 0 0
57.1 0 0
57.2 0 0
57.3 0 0
57.4 0 0
57.5 0 0
57.6 0 0
57.7 0 0
57.8 0 0
57.9 0 0
58 0 0
58.1 0 0
58.2 0 0
58.3 0 0
58.4 0 0
58.5 0 0
58.6 0 0
58.7 0 0
58.8 0 0
58.9 0 0
59 0 0
59.1 0 0
59.2 0 0
59.3 0 0
59.4 0 0
59.5 0 0
59.6 0 0
59.7 0 0
59.8 0 0
59.9 0 0
60 0 0
60.1 0 0
60.2 0 0
60.3 0 0
60.4 0 0
60.5 0 0
60.6 0 0
60.7 0 0
60.8 0 0
60.9 0 0
61 0 0
61.1 0 0
61.2 0 0
61.3 0 0
61.4 0 0
61.5 0 0
61.6 0 0
61.7 0 0
61.8 0 0
61.9 0 0
62 0 0
62.1 0 0
62.2 0 0
62.3 0 0
62.4 0 0
62.5 0 0
62.6 0 0
62.7 0 0
62.8 0 0
62.9 0 0
63 0 0
63.1 0 0
63.2 0 0
63.3 0 0
63.4 0 0
63.5 0 0
63.6 0 0
63.7 0 0
63.8 0 0
63.9 0 0
64 0 0
64.1 0 0
64.2 0 0
64.3 0 0
64.4 0 0
64.5 0 0
64.6 0 0
64.7 0 0
64.8 0 0
64.9 0 0
65 0 0
65.1 0 0
65.2 0 0
65.3 0 0
65.4 0 0
65.5 0 0
65.6 0 0
65.7 0 0
65.8 0 0
65.9 0 0
66 0 0
66.1 0 0
66.2 0 0
66.3 0 0
66.4 0 0
66.5 0 0
66.6 0 0
66.7 0 0
66.8 0 0
66.9 0 0
67 0 0
67.1 0 0
67.2 0 0
67.3 0 0
67.4 0 0
67.5 0 0
67.6 0 0
67.7 0 0
67.8 0 0
67.9 0 0
68 0 0
68.1 0 0
68.2 0 0
68.3 0 0
68.4 0 0
68.5 0 0
68.6 0 0
68.7 0 0
68.8 0 0
68.9 0 0
69 0 0
69.1 0 0
69.2 0 0
69.3 0 0
69.4 0 0
69.5 0 0
69.6 0 0
69.7 0 0
69.8 0 0
69.9 0 0
70 0 0
70.1 0 0
70.2 0 0
70.3 0 0
70.4 0 0
70.5 0 0
70.6 0 0
70.7 0 0
70.8 0 0
70.9 0 0
71 0 0
71.1 0 0
71.2 0 0
71.3 0 0
71.4 0 0
71.5 0 0
71.6 0 0
71.7 0 0
71.8 0 0
71.9 0 0
72 0 0
72.1 0 0
72.2 0 0
72.3 0 0
72.4 0 0
72.5 0 0
72.6 0 0
72.7 0 0
72.8 0 0
72.9 0 0
73 0 0
73.1 0 0
73.2 0 0
73.3 0 0
73.4 0 0
73.5 0 0
73.6 0 0
73.7 0 0
73.8 0 0
73.9 0 0
74 0 0
74.1 0 0
74.2 0 0
74.3 0 0
74.4 0 0
74.5 0 0
74.6 0 0
74.7 0 0
74.8 0 0
74.9 0 0
75 0 0
75.1 0 0
75.2 0 0
75.3 0 0
75.4 0 0
75.5 0 0
75.6 0 0
75.7 0 0
75.8 0 0
75.9 0 0
76 0 0
76.1 0 0
76.2 0 0
76.3 0 0
76.4 0 0
76.5 0 0
76.6 0 0
76.7 0 0
76.8 0 0
76.9 0 0
77 0 0
77.1 0 0
77.2 0 0
77.3 0 0
77.4 0 0
77.5 0 0
77.6 0 0
77.7 0 0
77.8 0 0
77.9 0 0
78 0 0
78.1 0 0
78.2 0 0
78.3 0 0
78.4 0 0
78.5 0 0
78.6 0 0
78.7 0 0
78.8 0 0
78.9 0 0
79 0 0
79.1 0 0
79.2 0 0
79.3 0 0
79.4 0 0
79.5 0 0
79.6 0 0
79.7 0 0
79.8 0 0
79.9 0 0
80 0 0
80.1 0 0
80.2 0 0
80.3 0 0
80.4 0 0
80.5 0 0
80.6 0 0
80.7 0 0
80.8 0 0
80.9 0 0
81 0 0
81.1 0 0
81.2 0 0
81.3 0 0
81.4 0 0
81.5 0 0
81.6 0 0
81.7 0 0
81.8 0 0
81.9 0 0
82 0 0
82.1 0 0
82.2 0 0
82.3 0 0
82.4 0 0
82.5 0 0
82.6 0 0
82.7 0 0
82.8 0 0
82.9 0 0
83 0 0
83.1 0 0
83.2 0 0
83.3 0 0
83.4 0 0
83.5 0 0
83.6 0 0
83.7 0 0
83.8 0 0
83.9 0 0
84 0 0
84.1 0 0
84.2 0 0
84.3 0 0
84.4 0 0
84.5 0 0
84.6 0 0
84.7 0 0
84.8 0 0
84.9 0 0
85 0 0
85.1 0 0
85.2 0 0
85.3 0 0
85.4 0 0
85.5 0 0
85.6 0 0
85.7 0 0
85.8 0 0
85.9 0 0
86 0 0
86.1 0 0
86.2 0 0
86.3 0 0
86.4 0 0
86.5 0 0
86.6 0 0
86.7 0 0
86.8 0 0
86.9 0 0
87 0 0
87.1 0 0
87.2 0 0
87.3 0 0
87.4 0 0
87.5 0 0
87.6 0 0
87.7 0 0
87.8 0 0
87.9 0 0
88 0 0
88.1 0 0
88.2 0 0
88.3 0 0
88.4 0 0
88.5 0 0
88.6 0 0
88.7 0 0
88.8 0 0
88.9 0 0
89 0 0
89.1 0 0
89.2 0 0
89.3 0 0
89.4 0 0
89.5 0 0
89.6 0 0
89.7 0 0
89.8 0 0
89.9 0 0
90 0 0
90.1 0 0
90.2 0 0
90.3 0 0
90.4 0 0
90.5 0 0
90.6 0 0
90.7 0 0
90.8 0 0
90.9 0 0
91 0 0
91.1 0 0
91.2 0 0
91.3 0 0
91.4 0 0
91.5 0 0
91.6 0 0
91.7 0 0
91.8 0 0
91.9 0 0
92 0 0
92.1 0 0
92.2 0 0
92.3 0 0
92.4 0 0
92.5 0 0
92.6 0 0
92.7 0 0
92.8 0 0
92.9 0 0
93 0 0
93.1 0 0
93.2 0 0
93.3 0 0
93.4 0 0
93.5 0 0
93.6 0 0
93.7 0 0
93.8 0 0
93.9 0 0
94 0 0
94.1 0 0
94.2 0 0
94.3 0 0
94.4 0 0
94.5 0 0
94.6 0 0
94.7 0 0
94.8 0 0
94.9 0 0
95 0 0
95.1 0 0
95.2 0 0
95.3 0 0
95.4 0 0
95.5 0 0
95.6 0 0
95.7 0 0
95.8 0 0
95.9 0 0
96 0 0
96.1 0 0
96.2 0 0
96.3 0 0
96.4 0 0
96.5 0 0
96.6 0 0
96.7 0 0
96.8 0 0
96.9 0 0
97 0 0
97.1 0 0
97.2 0 0
97.3 0 0
97.4 0 0
97.5 0 0
97.6 0 0
97.7 0 0
97.8 0 0
97.9 0 0
98 0 0
98.1 0 0
98.2 0 0
98.3 0 0
98.4 0 0
98.5 0 0
98.6 0 0
98.7 0 0
98.8 0 0
98.9 0 0
99 0 0
99.1 0 0
99.2 0 0
99.3 0 0
99.4 0 0
99.5 0 0
99.6 0 0
99.7 0 0
99.8 0 0
99.9 0 0
100 0 0
100.1 0 0
100.2 0 0
100.3 0 0
100.4 0 0
100.5 0 0
100.6 0 0
100.7 0 0
100.8 0 0
100.9 0 0
101 0 0
101.1 0 0
101.2 0 0
101.3 0 0
101.4 0 0
101.5 0 0
101.6 0 0
101.7 0 0
101.8 0 0
101.9 0 0
102 0 0
102.1 0 0
102.2 0 0
102.3 0 0
102.4 0 0
102.5 0 0
102.6 0 0
102.7 0 0
102.8 0 0
102.9 0 0
103 0 0
103.1 0 0
103.2 0 0
103.3 0 0
103.4 0 0
103.5 0 0
103.6 0 0
103.7 0 0
103.8 0 0
103.9 0 0
104 0 0
104.1 0 0
104.2 0 0
104.3 0 0
104.4 0 0
104.5 0 0
104.6 0 0
104.7 0 0
104.8 0 0
104.9 0 0
105 0 0
105.1 0 0
105.2 0 0
105.3 0 0
105.4 0 0
105.5 0 0
105.6 0 0
105.7 0 0
105.8 0 0
105.9 0 0
106 0 0
106.1 0 0
106.2 0 0
106.3 0 0
106.4 0 0
106.5 0 0
106.6 0 0
106.7 0 0
106.8 0 0
106.9 0 0
107 0 0
107.1 0 0
107.2 0 0
107.3 0 0
107.4 0 0
107.5 0 0
107.6 0 0
107.7 0 0
107.8 0 0
107.9 0 0
108 0 0
108.1 0 0
108.2 0 0
108.3 0 0
108.4 0 0
108.5 0 0
108.6 0 0
108.7 0 0
108.8 0 0
108.9 0 0
109 0 0
109.1 0 0
109.2 0 0
109.3 0 0
109.4 0 0
109.5 0 0
109.6 0 0
109.7 0 0
109.8 0 0
109.9 0 0
110 0 0
110.1 0 0
110.2 0 0
110.3 0 0
110.4 0 0
110.5 0 0
110.6 0 0
110.7 0 0
110.8 0 0
110.9 0 0
111 0 0
111.1 0 0
111.2 0 0
111.3 0 0
111.4 0 0
111.5 0 0
111.6 0 0
111.7 0 0
111.8 0 0
111.9 0 0
112 0 0
[...]
POINT_DATA 83304

SCALARS pressure float 1
LOOKUP_TABLE default
0
0
0
0
0
0
0
0
0
0
0
0
0
0
0
0
0
0
0
0
0
0
0
0
0
0
0
0
0
0
0
0
0
0
0
0
0
0
0
0
0
0
0
0
0
0
0
0
0
0
0
0
0
0
0
0
0
0
0
0
0
0
0
0
0
0
0
0
0
0
0
0
0
0
0
0
0
0
0
0
0
0
0
0
0
0
0
0
0
0
0
0
0
0
0
0
0
0
0
0
0
0
0
0
0
0
0
0
0
0
0
0
0
0
0
0
0
0
0
0
0
0
0
0
0
0
0
0
0
0
0
0
0
0
0
0
0
0
0
0
0
0
0
0
0
0
0
0
0
0
0
0
0
0
0
0
0
0
0
0
0
0
0
0
0
0
0
0
0
0
0
0
0
0
0
0
0
0
0
0
0
0
0
0
0
0
0
0
0
0
0
0
0
0
0
0
0
0
0
0
0
0
0
0
0
0
0
0
0
0
0
0
0
0
0
0
0
0
0
0
0
0
0
0
0
0
0
0
0
0
0
0
0
0
0
0
0
0
0
0
0
0
0
0
0
0
0
0
0
0
0
0
0
0
0
0
0
0
0
0
0
0
0
0
0
0
0
0
0
0
0
0
0
0
0
0
0
0
0
0
0
0
0
0
0
0
0
0
0
0
0
0
0
0
0
0
0
0
0
0
0
0
0
0
0
0
0
0
0
0
0
0
0
0
0
0
0
0
0
0
0
0
0
0
0
0
0
0
0
0
0
0
0
0
0
0
0
0
0
0
0
0
0
0
0
0
0
0
0
0
0
0
0
0
0
0
0
0
0
0
0
0
0
0
0
0
0
0
0
0
0
0
0
0
0
0
0
0
0
0
0
0
0
0
0
0
0
0
0
0
0
0
0
0
0
0
0
0
0
0
0
0
0
0
0
0
0
0
0
0
0
0
0
0
0
0
0
0
0
0
0
0
0
0
0
0
0
0
0
0
0
0
0
0
0
0
0
0
0
0
0
0
0
0
0
0
0
0
0
0
0
0
0
0
0
0
0
0
0
0
0
0
0
0
0
0
0
0
0
0
0
0
0
0
0
0
0
0
0
0
0
0
0
0
0
0
0
0
0
0
0
0
0
0
0
0
0
0
0
0
0
0
0
0
0
0
0
0
0
0
0
0
0
0
0
0
0
0
0
0
0
0
0
0
0
0
0
0
0
0
0
0
0
0
0
0
0
0
0
0
0
0
0
0
0
0
0
0
0
0
0
0
0
0
0
0
0
0
0
0
0
0
0
0
0
0
0
0
0
0
0
0
0
0
0
0
0
0
0
0
0
0
0
0
0
0
0
0
0
0
0
0
0
0
0
0
0
0
0
0
0
0
0
0
0
0
0
0
0
0
0
0
0
0
0
0
0
0
0
0
0
0
0
0
0
0
0
0
0
0
0
0
0
0
0
0
0
0
0
0
0
0
0
0
0
0
0
0
0
0
0
0
0
0
0
0
0
0
0
0
0
0
0
0
0
0
0
0
0
0
0
0
0
0
0
0
0
0
0
0
0
0
0
0
0
0
0
0
0
0
0
0
0
0
0
0
0
0
0
0
0
0
0
0
0
0
0
0
0
0
0
0
0
0
0
0
0
0
0
0
0
0
0
0
0
0
0
0
0
0
0
0
0
0
0
0
0
0
0
0
0
0
0
0
0
0
0
0
0
0
0
0
0
0
0
0
0
0
0
0
0
0
0
0
0
0
0
0
0
0
0
0
0
0
0
0
0
0
0
0
0
0
0
0
0
0
0
0
0
0
0
0
0
0
0
0
0
0
0
0
0
0
0
0
0
0
0
0
0
0
0
0
0
0
0
0
0
0
0
0
0
0
0
0
0
0
0
0
0
0
0
0
0
0
0
0
0
0
0
0
0
0
0
0
0
0
0
0
0
0
0
0
0
0
0
0
0
0
0
0
0
0
0
0
0
0
0
0
0
0
0
0
0
0
0
0
0
0
0
0
0
0
0
0
0
0
0
0
0
0
0
0
0
0
0
0
0
0
0
0
0
0
0
0
0
0
0
0
0
0
0
0
0
0
0
0
0
0
0
0
0
0
0
0
0
0
0
0
0
0
0
0
0
0
0
0
0
0
0
0
0
0
0
0
0
0
0
0
0
0
0
0
0
0
0
0
0
0
0
0
0
0
0
0
0
0
0
0
0
0
0
0
0
0
0
0
0
0
0
0
0
0
0
0
0
0
0
0
0
0
0
0
0
0
0
0
0
0
0
0
0
0
0
0
0
0
0
0
0
0
0
0
0
0
0
0
0
0
0
0
0
0
0
0
0
0
0
0
0
0
0
0
0
0
0
0
0
0
0
0
0
0
0
0
0
0
0
0
0
0
0
0
0
0
0
0
0
0
0
0
0
0
0
0
0
0
0
0
0
0
0
0
0
0
0
0
0
0
0
0
0
0
0
0
0
0
0
0
0
0
0
0
0
0
0
0
0
0
0
0
0
0
0
0
0
0
0
0
0
0
0
0
0
0
0
0
0
0
0
0
0
0
0
0
0
0
0
0
0
0
0
0
0
0
0
0
0
0
0
0
0
0
0
0
0
0
0
0
0
0
0
0
0
0
0
0
0
0
0
0
0
0
0
0
0
0
0
0
0
0
0
0
0
0
0
0
0
0
0
0
0
0
0
0
0
0
0
0
0
0
0
0
0
0
0
0
0
0
0
0
0
0
0
0
0
0
0
0
0
0
0
0
0
0
0
0
0
0
0
0
0
0
0
0
0
0
0
0
0
0
0
0
0
0
0
0
0
0
0
0
0
0
0
0
0
0
0
0
0
0
0
0
0
0
0
0
0
0
0
0
0
0
0
0
0
0
0
0
0
0
0
0
0
0
0
0
0
0
0
0
0
0
0
0
0
0
0
0
0
0
0
0
0
0
0
0
0
0
0
0
0
0
0
0
0
0
0
0
0
0
0
0
0
0
0
0
0
0
0
0
0
0
0
0
0
0
0
0
0
0
0
0
0
0
0
0
0
0
0
0
0
0
0
0
0
0
0
0
0
0
0
0
0
0
0
0
0
0
0
0
0
0
0
0
0
0
0
0
0
0
0
0
0
0
0
0
0
0
0
0
0
0
0
0
0
0
0
0
0
0
0
0
0
0
0
0
0
0
0
0
0
0
0
0
0
0
0
0
0
0
0
0
0
0
0
0
0
0
0
0
0
0
0
0
0
0
0
0
0
0
0
0
0
0
0
0
0
0
0
0
0
0
0
0
0
0
0
0
0
0
0
0
0
0
0
0
0
0
0
0
0
0
0
0
0
0
0
0
0
0
0
0
0
0
0
0
0
0
0
0
0
0
0
0
0
0
0
0
0
0
0
0
0
0
0
0
0
0
0
0
0
0
0
0
0
0
0
0
0
0
0
0
0
0
0
0
0
0
0
0
0
0
0
0
0
0
0
0
0
0
0
0
0
0
0
0
0
0
0
0
0
0
0
0
0
0
0
0
0
0
0
0
0
0
0
0
0
0
0
0
0
0
0
0
0
0
0
0
0
0
0
0
0
0
0
0
0
0
0
0
0
0
0
0
0
0
0
0
0
0
0
0
0
0
0
0
0
0
0
0
0
0
0
0.0776415
0.052903
0.0436505
0.0357426
0.03048
0.0271088
0.0248019
0.023116
0.0218008
0.0207277
0.0198235
0.0190436
0.0183596
0.0177519
0.0172066
0.0167134
0.0162643
0.0158532
0.0154749
0.0151254
0.0148012
0.0144993
0.0142174
0.0139533
0.0137051
0.0134714
0.0132506
0.0130416
0.0128434
0.0126549
0.0124753
0.0123039
0.0121401
0.0119833
0.0118328
0.0116884
0.0115494
0.0114156
0.0112866
0.0111621
0.0110418
0.0109254
0.0108128
0.0107037
0.0105979
0.0104952
0.0103955
0.0102987
0.0102045
0.0101129
0.0100238
0.00993702
0.0098525
0.00977015
0.00968989
0.00961163
0.00953532
0.00946088
0.00938825
0.00931738
0.00924821
0.0091807
0.0091148
0.00905046
0.00898765
0.00892632
0.00886645
0.00880799
0.00875091
0.00869519
0.00864079
0.00858768
0.00853584
0.00848524
0.00843585
0.00838766
0.00834063
0.00829474
0.00824997
0.0082063
0.00816371
0.00812218
0.00808168
0.00804219
0.0080037
0.00796619
0.00792963
0.00789401
0.0078593
0.00782549
0.00779257
0.0077605
0.00772928
0.00769888
0.00766929
0.00764049
0.00761246
0.00758519
0.00755866
0.00753284
0.00750774
0.00748332
0.00745957
0.00743648
0.00741402
0.0073922
0.00737098
0.00735036
0.00733032
0.00731084
0.00729191
0.00727352
0.00725566
0.0072383
0.00722144
0.00720506
0.00718916
0.00717371
0.00715871
0.00714414
0.00712999
0.00711625
0.00710291
0.00708995
0.00707737
0.00706516
0.0070533
0.00704178
0.0070306
0.00701975
0.00700921
0.00699899
0.00698906
0.00697944
0.0069701
0.00696105
0.00695227
0.00694376
0.00693551
0.00692751
0.00691975
0.00691223
0.00690494
0.00689787
0.00689103
0.00688441
0.00687802
0.00687186
0.00686594
0.00686025
0.00685481
0.00684961
0.00684463
0.00683986
0.00683525
0.00683076
0.00682632
0.00682185
0.00681729
0.00681258
0.00680768
0.00680263
0.00679752
0.00679256
0.00678806
0.00678448
0.00678239
0.00678249
0.00678553
0.00679222
0.00680315
0.0068186
0.00683837
0.00686157
0.00688637
0.00690979
0.0069275
0.00693374
0.00692124
0.0068814
0.00680459
0.00668073
0.00650011
0.00625458
0.00593902
0.00555323
0.005104
0.0046075
0.00409148
0.00359717
0.00318026
0.00291042
0.0028689
0.00314363
0.00382241
0.00498467
0.00669217
0.00898182
0.0118609
0.0153045
0.0192556
0.0236304
0.0283259
0.0332229
0.0381873
0.0430847
0.047791
0.052183
0.0561248
0.0594893
0.0622048
0.0642717
0.0657265
0.0665954
0.0668814
0.066583
0.065717
0.0643245
0.0624653
0.0602084
0.0576254
0.0547874
0.0517627
0.0486163
0.0454082
0.0421925
0.0390163
0.0359192
0.0329333
0.030083
0.027386
0.0248537
0.0224923
0.0203035
0.0182857
0.0164342
0.0147425
0.0132025
0.0118054
0.0105415
0.00940115
0.0083747
0.00745269
0.00662602
0.00588608
0.00522475
0.00463447
0.00410823
0.00363961
0.00322269
0.00285211
0.00252297
0.00223085
0.00197177
0.00174213
0.00153868
0.00135855
0.00119913
0.0010581
0.0009334
0.00082317
0.000725771
0.000639737
0.000563766
0.000496702
0.000437518
0.000385301
0.000339245
0.000298631
0.000262826
0.000231268
0.00020346
0.00017896
0.000157381
0.000138378
0.000121647
0.00010692
9.39583e-05
8.25533e-05
7.25199e-05
6.36947e-05
5.59338e-05
4.91099e-05
4.31112e-05
3.78388e-05
3.32055e-05
2.91346e-05
2.55586e-05
2.24177e-05
1.96595e-05
1.72379e-05
1.5112e-05
1.32462e-05
1.16088e-05
1.01722e-05
8.91188e-06
7.80648e-06
6.8371e-06
5.98713e-06
5.24199e-06
4.58886e-06
4.01647e-06
3.51493e-06
3.07553e-06
2.69063e-06
2.35354e-06
2.05836e-06
1.79992e-06
1.57369e-06
1.37568e-06
1.2024e-06
1.05079e-06
9.18152e-07
8.02135e-07
7.00672e-07
6.11951e-07
5.34383e-07
4.66578e-07
4.07315e-07
3.55526e-07
3.10276e-07
2.70745e-07
2.36216e-07
2.0606e-07
1.79727e-07
1.56737e-07
1.36667e-07
1.1915e-07
1.03863e-07
9.05248e-08
7.88878e-08
6.87369e-08
5.98835e-08
5.21631e-08
4.54315e-08
3.9563e-08
3.44477e-08
2.99896e-08
2.61047e-08
2.27199e-08
1.97712e-08
1.72028e-08
1.4966e-08
1.30182e-08
1.13224e-08
9.84611e-09
8.56114e-09
7.44285e-09
6.46975e-09
5.62311e-09
4.88659e-09
4.24598e-09
3.68884e-09
3.20438e-09
2.78318e-09
2.41701e-09
2.09874e-09
1.82214e-09
1.58178e-09
1.37295e-09
1.19153e-09
1.03394e-09
8.97082e-10
7.78236e-10
6.75046e-10
5.85463e-10
5.07702e-10
4.40212e-10
3.81644e-10
3.30826e-10
2.86738e-10
2.48493e-10
2.15322e-10
1.86555e-10
1.6161e-10
1.39984e-10
1.21236e-10
1.04985e-10
9.09014e-11
7.86971e-11
6.81228e-11
5.89619e-11
5.10265e-11
4.41535e-11
3.82016e-11
3.30478e-11
2.85858e-11
2.47232e-11
2.13798e-11
1.84863e-11
1.59824e-11
1.3816e-11
1.19417e-11
1.03204e-11
8.91819e-12
7.70551e-12
6.65691e-12
5.75031e-12
4.96657e-12
4.28912e-12
3.70363e-12
3.19767e-12
2.76049e-12
2.38279e-12
2.05652e-12
1.77471e-12
1.53133e-12
1.32117e-12
1.13971e-12
9.83049e-13
8.47823e-13
7.31109e-13
6.30386e-13
5.43473e-13
4.68487e-13
4.03797e-13
3.47998e-13
2.99873e-13
2.58371e-13
2.22586e-13
1.91735e-13
1.65139e-13
1.42215e-13
1.22458e-13
1.05433e-13
9.07639e-14
7.81262e-14
6.72399e-14
5.78634e-14
4.97883e-14
4.28348e-14
3.6848e-14
3.1694e-14
2.72575e-14
2.34391e-14
2.01531e-14
1.73257e-14
1.48931e-14
1.28004e-14
1.10004e-14
9.45235e-15
8.12114e-15
6.97653e-15
5.99249e-15
5.1466e-15
4.41956e-15
3.79474e-15
3.25784e-15
2.79654e-15
2.40025e-15
2.05984e-15
1.76748e-15
1.51642e-15
1.30084e-15
1.11576e-15
9.5689e-16
8.20532e-16
7.03515e-16
6.03113e-16
5.16981e-16
4.43108e-16
3.79763e-16
3.25455e-16
2.78904e-16
2.39002e-16
2.04794e-16
1.75454e-16
1.50273e-16
1.28642e-16
1.10046e-16
9.40486e-17
8.02869e-17
6.84583e-17
5.83114e-17
4.96375e-17
4.22643e-17
3.60501e-17
3.08774e-17
2.66433e-17
2.32448e-17
2.056e-17
1.84306e-17
1.66518e-17
1.49802e-17
1.3164e-17
1.09961e-17
8.37882e-18
5.3831e-18
2.2769e-18
-4.97084e-19
-2.40469e-18
-2.95594e-18
-1.8646e-18
8.12669e-19
4.60593e-18
8.66781e-18
1.19275e-17
1.334e-17
1.21742e-17
8.26205e-18
2.1291e-18
-5.04737e-18
-1.1666e-17
-1.60728e-17
-1.69896e-17
-1.38862e-17
-7.18728e-18
1.75526e-18
1.09381e-17
1.81717e-17
2.16228e-17
2.02935e-17
1.43081e-17
4.92244e-18
-5.75336e-18
-1.52561e-17
-2.13681e-17
-2.26615e-17
-1.88475e-17
-1.08431e-17
-5.39096e-19
9.66777e-18
1.7458e-17
2.11389e-17
2.00255e-17
1.45645e-17
6.18135e-18
-3.10016e-18
-1.11615e-17
-1.6287e-17
-1.75357e-17
-1.49062e-17
-9.26921e-18
-2.1018e-18
4.8992e-18
1.02216e-17
1.28639e-17
1.25135e-17
9.54922e-18
4.88547e-18
-2.89344e-19
-4.80804e-18
-7.78161e-18
-8.76325e-18
-7.79303e-18
-5.3277e-18
-2.08641e-18
1.1417e-18
3.67931e-18
5.09262e-18
5.25044e-18
4.30793e-18
2.62996e-18
6.80235e-19
-1.09378e-18
-2.354e-18
-2.92598e-18
-2.80863e-18
-2.145e-18
-1.1669e-18
-1.30334e-19
7.42813e-19
1.30517e-18
1.50093e-18
1.36031e-18
9.76733e-19
4.75164e-19
-2.0072e-20
-4.10893e-19
-6.40411e-19
-6.96198e-19
-6.03596e-19
-4.12559e-19
-1.82183e-19
3.33362e-20
1.94673e-19
2.82079e-19
2.95009e-19
2.47893e-19
1.63794e-19
6.77743e-20
-1.86166e-20
-8.08319e-20
-1.12573e-19
-1.15061e-19
-9.4969e-20
-6.17554e-20
-2.50979e-20
7.0782e-21
2.97249e-20
4.09357e-20
4.15146e-20
3.41176e-20
2.22482e-20
9.34929e-21
-1.85327e-21
-9.69019e-21
-1.35889e-20
-1.38869e-20
-1.15179e-20
-7.66628e-21
-3.46968e-21
1.8759e-22
2.77307e-21
4.10862e-21
4.30339e-21
3.65039e-21
2.51742e-21
1.25519e-21
1.35681e-22
-6.76271e-22
-1.12237e-21
-1.23008e-21
-1.08166e-21
-7.8212e-22
-4.32533e-22
-1.12281e-22
1.29151e-22
2.7218e-22
3.21477e-22
2.97508e-22
2.27755e-22
1.39396e-22
5.43568e-23
-1.30612e-23
-5.63785e-23
-7.56037e-23
-7.51264e-23
-6.14806e-23
-4.14426e-23
-2.07102e-23
-3.21713e-24
8.99766e-24
1.55286e-23
1.71288e-23
1.51822e-23
1.12389e-23
6.67813e-24
2.51709e-24
-6.48062e-25
-2.60442e-24
-3.42786e-24
-3.36897e-24
-2.74704e-24
-1.86888e-24
-9.78358e-25
-2.35178e-25
2.83683e-25
5.68163e-25
6.5295e-25
5.95256e-25
4.56568e-25
2.90236e-25
1.35025e-25
1.36062e-26
-6.5536e-26
-1.04377e-25
-1.1115e-25
-9.65877e-26
-7.1119e-26
-4.31639e-26
-1.84179e-26
1.15053e-28
1.16305e-26
1.68315e-26
1.72355e-26
1.46019e-26
1.05367e-26
6.27429e-27
2.60811e-27
-7.57514e-29
-1.70718e-27
-2.42153e-27
-2.45652e-27
-2.07176e-27
-1.49594e-27
-9.00078e-28
-3.91162e-28
-1.93223e-29
2.08148e-28
3.11006e-28
3.21949e-28
2.75932e-28
2.03383e-28
1.2691e-28
6.06604e-29
1.13669e-29
-1.97717e-29
-3.50443e-29
-3.84246e-29
-3.42221e-29
-2.62284e-29
-1.73005e-29
-9.27226e-30
-3.07316e-30
1.05095e-30
3.29491e-30
4.07897e-30
3.8857e-30
3.15479e-30
2.2289e-30
1.3384e-30
6.10913e-31
9.39183e-32
-2.19136e-31
-3.64848e-31
-3.91161e-31
-3.44756e-31
-2.64041e-31
-1.76479e-31
-9.88499e-32
-3.91403e-32
9.56915e-34
2.35971e-32
3.27744e-32
3.28849e-32
2.78498e-32
2.06963e-32
1.34652e-32
7.31762e-33
2.73561e-33
-2.56005e-34
-1.89256e-33
-2.51771e-33
-2.48135e-33
-2.08177e-33
-1.54156e-33
-1.00633e-33
-5.56113e-34
-2.22081e-34
-3.50882e-36
1.1784e-34
1.67019e-34
1.68941e-34
1.44571e-34
1.09458e-34
7.37749e-35
4.31799e-35
1.999e-35
4.34183e-36
-4.83764e-36
-9.11501e-36
-1.00852e-35
-9.11469e-36
-7.23737e-36
-5.14967e-36
-3.25969e-36
-1.75793e-36
-6.8878e-37
-1.12679e-38
3.55234e-37
5.00471e-37
5.05554e-37
4.34775e-37
3.33786e-37
2.3145e-37
1.43363e-37
7.57293e-38
2.88364e-38
-2.13918e-40
-1.55786e-38
-2.14654e-38
-2.14871e-38
-1.84086e-38
-1.41407e-38
-9.86276e-39
-6.19682e-39
-3.38062e-39
-1.41565e-39
-1.79432e-40
4.97531e-40
7.84595e-40
8.26425e-40
7.33806e-40
5.83826e-40
4.24892e-40
2.83511e-40
1.71001e-40
8.91708e-41
3.46348e-41
1.8014e-42
-1.52688e-41
-2.18522e-41
-2.21362e-41
-1.91558e-41
-1.4925e-41
-1.06502e-41
-6.95407e-42
-4.07301e-42
-2.01317e-42
-6.62333e-43
1.36151e-43
5.39513e-43
6.83185e-43
6.72525e-43
5.8285e-43
4.63687e-43
3.44546e-43
2.4065e-43
1.57838e-43
9.63571e-44
5.35557e-44
2.56563e-44
8.80716e-45
-3.72642e-46
-4.58002e-45
-5.81143e-45
-5.44828e-45
-4.38191e-45
-3.14164e-45
-2.00717e-45
-1.09779e-45
-4.38238e-46
-3.87415e-48
2.50397e-46
3.73189e-46
4.07888e-46
3.89121e-46
3.42264e-46
2.84494e-46
2.26466e-46
1.74041e-46
1.29814e-46
9.43294e-47
6.69719e-47
4.65737e-47
3.1802e-47
2.13812e-47
1.42029e-47
9.36464e-48
6.16646e-48
4.08721e-48
2.75211e-48
1.90015e-48
1.35494e-48
1.00077e-48
7.63864e-49
5.9859e-49
4.7749e-49
3.84488e-49
3.10365e-49
2.49868e-49
1.99938e-49
1.58668e-49
1.24726e-49
9.70586e-50
7.47549e-50
5.699e-50
4.30136e-50
3.21508e-50
2.3807e-50
1.74705e-50
1.27102e-50
9.17055e-51
6.56424e-51
4.66291e-51
3.28811e-51
2.30236e-51
1.60123e-51
1.10635e-51
7.59604e-52
5.18364e-52
3.51657e-52
2.37204e-52
1.59117e-52
1.06163e-52
7.04625e-53
4.65299e-53
3.05742e-53
1.9993e-53
1.30123e-53
8.43007e-54
5.43694e-54
3.49113e-54
2.23206e-54
1.42107e-54
9.01004e-55
5.68954e-55
3.57849e-55
2.24194e-55
1.3992e-55
8.69958e-56
5.38894e-56
3.326e-56
2.04541e-56
1.25343e-56
7.65429e-57
4.65818e-57
2.82524e-57
1.70782e-57
1.02896e-57
6.17928e-58
3.69898e-58
2.20723e-58
1.31296e-58
7.78589e-59
4.60294e-59
2.71298e-59
1.59425e-59
9.34071e-60
5.4567e-60
3.17849e-60
1.84614e-60
1.06923e-60
6.1753e-61
3.55658e-61
2.04272e-61
1.17002e-61
6.68349e-62
3.80754e-62
2.16336e-62
1.22593e-62
6.92891e-63
3.90603e-63
2.19628e-63
1.23177e-63
6.8908e-64
3.84518e-64
2.14032e-64
1.18841e-64
6.58238e-65
3.63697e-65
2.00467e-65
1.1023e-65
6.04672e-66
3.30908e-66
1.80664e-66
9.84047e-67
5.34749e-67
2.89921e-67
1.56823e-67
8.4635e-68
4.55725e-68
2.44837e-68
1.31243e-68
7.01953e-69
3.74608e-69
1.99476e-69
1.05987e-69
5.61909e-70
2.97263e-70
1.5692e-70
8.26586e-71
4.34481e-71
2.27894e-71
1.19284e-71
6.23042e-72
3.24749e-72
1.68918e-72
8.76815e-73
4.542e-73
2.348e-73
1.21134e-73
6.23668e-74
3.20454e-74
1.64326e-74
8.40971e-75
4.29529e-75
2.1895e-75
1.11389e-75
5.6557e-76
2.86605e-76
1.44957e-76
7.31732e-77
3.68663e-77
1.85384e-77
9.3044e-78
4.66098e-78
2.33047e-78
1.16303e-78
5.79325e-79
2.88032e-79
1.42939e-79
7.08036e-80
3.50071e-80
1.72766e-80
8.51066e-81
4.1848e-81
2.05398e-81
1.00631e-81
4.9213e-82
2.40241e-82
1.17068e-82
5.69444e-83
2.76498e-83
1.34018e-83
6.48434e-84
3.13187e-84
1.51001e-84
7.26772e-85
3.49188e-85
1.67481e-85
8.01902e-86
3.8329e-86
1.82889e-86
8.71173e-87
4.14266e-87
1.9666e-87
9.31999e-88
4.40942e-88
2.08265e-88
9.82019e-89
4.62272e-89
2.17245e-89
1.01925e-89
4.7741e-90
2.23246e-90
1.04223e-90
4.85764e-91
2.26036e-91
1.05008e-91
4.87031e-92
2.25521e-92
1.0426e-92
4.81221e-93
2.21755e-93
1.02025e-93
4.68645e-94
2.14926e-94
9.84112e-95
4.49895e-95
2.05348e-95
9.35806e-96
4.25792e-96
1.93432e-96
8.77368e-97
3.97335e-97
1.79662e-97
8.11117e-98
3.65627e-98
1.6456e-98
7.39505e-99
3.31812e-99
1.48655e-99
6.64971e-100
2.97006e-100
1.32455e-100
5.89815e-101
2.62244e-101
1.16424e-101
5.16091e-102
2.28433e-102
1.00959e-102
4.45533e-103
1.96323e-103
8.63807e-104
3.79508e-104
1.66488e-104
7.293e-105
3.19e-105
1.39328e-105
6.0765e-106
2.64627e-106
1.15075e-106
4.9969e-107
2.16666e-107
9.38107e-108
4.05591e-108
1.75106e-108
7.549e-109
3.2498e-109
1.39702e-109
5.99698e-110
2.57066e-110
1.10037e-110
4.7035e-111
2.00766e-111
8.55749e-112
3.64244e-112
1.54821e-112
6.57143e-113
2.78538e-113
1.17897e-113
4.98331e-114
2.10344e-114
8.8663e-115
3.73211e-115
1.5688e-115
6.58545e-116
2.76062e-116
1.15567e-116
4.83133e-117
2.01701e-117
8.40927e-118
3.50122e-118
1.45577e-118
6.04474e-119
2.50655e-119
1.03799e-119
4.29263e-120
1.77285e-120
7.31208e-121
3.01182e-121
1.23891e-121
5.08945e-122
2.08798e-122
8.55473e-123
3.50036e-123
1.43036e-123
5.83722e-124
2.37901e-124
9.68317e-125
3.93614e-125
1.59792e-125
6.47849e-126
2.62317e-126
1.06076e-126
4.28393e-127
1.72785e-127
6.96001e-128
2.79997e-128
1.12496e-128
4.51404e-129
1.80899e-129
7.2402e-130
2.89408e-130
1.15536e-130
4.6065e-131
1.83431e-131
7.29501e-132
2.89753e-132
1.14943e-132
4.55395e-133
1.80197e-133
7.12136e-134
2.81082e-134
1.10805e-134
4.36258e-135
1.71548e-135
6.73731e-136
2.6427e-136
1.03531e-136
4.05095e-137
1.58309e-137
6.17899e-138
2.40877e-138
9.37861e-139
3.64711e-139
1.41653e-139
5.49507e-140
2.12907e-140
8.23904e-141
3.18445e-141
1.22932e-141
4.7399e-142
1.82536e-142
7.02103e-143
2.6973e-143
1.03499e-143
3.9666e-144
1.51838e-144
5.80526e-145
2.21688e-145
8.45561e-146
3.22129e-146
1.22574e-146
4.65852e-147
1.76841e-147
6.70507e-148
2.53928e-148
9.60515e-149
3.62899e-149
1.36948e-149
5.16197e-150
1.94341e-150
7.30813e-151
2.74498e-151
1.02983e-151
3.85908e-152
1.44443e-152
5.40014e-153
2.01655e-153
7.5216e-154
2.80226e-154
1.04281e-154
3.87615e-155
1.43912e-155
5.33694e-156
1.97692e-156
7.31457e-157
2.70328e-157
9.97922e-158
3.67965e-158
1.35526e-158
4.98589e-159
1.83219e-159
6.72521e-160
2.46575e-160
9.03026e-161
3.30341e-161
1.20707e-161
4.40571e-162
1.60624e-162
5.84949e-163
2.12783e-163
7.73164e-164
2.80621e-164
1.01738e-164
3.68438e-165
1.33279e-165
4.81587e-166
1.73823e-166
6.26697e-167
2.25698e-167
8.1193e-168
2.91763e-168
1.04728e-168
3.75507e-169
1.34492e-169
4.8117e-170
1.71959e-170
6.13869e-171
2.18903e-171
7.7975e-172
2.7745e-172
9.8615e-173
3.5013e-173
1.24178e-173
4.39934e-174
1.55691e-174
5.50387e-175
1.94359e-175
6.85605e-176
2.41588e-176
8.50377e-177
2.99007e-177
1.05023e-177
3.68489e-178
1.29152e-178
4.52181e-179
1.58147e-179
5.52522e-180
1.9283e-180
6.72265e-181
2.34123e-181
8.14498e-182
2.83058e-182
9.8266e-183
3.40779e-183
1.18055e-183
4.08546e-184
1.41235e-184
4.87736e-185
1.68258e-185
5.79843e-186
1.99614e-186
6.86468e-187
2.35829e-187
8.09321e-188
2.77456e-188
9.50202e-189
3.25078e-189
1.11099e-189
3.79301e-190
1.29363e-190
4.40745e-191
1.50009e-191
5.10036e-192
1.73236e-192
5.87801e-193
1.9924e-193
6.74651e-194
2.28212e-194
7.71175e-195
2.60331e-195
8.77922e-196
2.95763e-196
9.95387e-197
3.34656e-197
1.124e-197
3.77132e-198
1.2641e-198
4.23284e-199
1.41594e-199
4.73173e-200
1.57964e-200
5.26817e-201
1.7552e-201
5.84195e-202
1.94247e-202
6.45233e-203
2.14114e-203
7.09809e-204
2.35074e-204
7.77743e-205
2.57061e-205
8.48798e-206
2.7999e-206
9.2268e-207
3.0376e-207
9.99034e-208
3.28248e-208
1.07745e-208
3.53315e-209
1.15745e-209
3.78803e-210
1.23851e-210
4.04541e-211
1.32008e-211
4.3034e-212
1.40152e-212
4.56e-213
1.4822e-213
4.81312e-214
1.56144e-214
5.06058e-215
1.63853e-215
5.30018e-216
1.71279e-216
5.52968e-217
1.78351e-217
5.7469e-218
1.85001e-218
5.9497e-219
1.91161e-219
6.13604e-220
1.9677e-220
6.304e-221
2.0177e-221
6.45183e-222
2.06108e-222
6.57798e-223
2.09738e-223
6.68112e-224
2.12622e-224
6.76013e-225
2.14729e-225
6.8142e-226
2.16037e-226
6.84278e-227
2.16534e-227
6.84559e-228
2.16215e-228
6.82267e-229
2.15087e-229
6.77432e-230
2.13162e-230
6.70114e-231
2.10465e-231
6.604e-232
2.07028e-232
6.48402e-233
2.02888e-233
6.34256e-234
1.98093e-234
6.18116e-235
1.92694e-235
6.00157e-236
1.86749e-236
5.80567e-237
1.8032e-237
5.59547e-238
1.73471e-238
5.37304e-239
1.66269e-239
5.14051e-240
1.58782e-240
4.90003e-241
1.51077e-241
4.65373e-242
1.43221e-242
4.40369e-243
1.35279e-243
4.15192e-244
1.27313e-244
3.90032e-245
1.19381e-245
3.65069e-246
1.11538e-246
3.40468e-247
1.03833e-247
3.16378e-248
9.63126e-249
2.92933e-249
8.90151e-250
2.70251e-250
8.1975e-251
2.48431e-251
7.52211e-252
2.27554e-252
6.87768e-253
2.07688e-253
6.26601e-254
1.88879e-254
5.68841e-255
1.71163e-255
5.14569e-256
1.54558e-256
4.63823e-257
1.39069e-257
4.16601e-258
1.24689e-258
3.72865e-259
1.11402e-259