# vtk DataFile Version 2.0
FlowField
ASCII
DATASET STRUCTURED_GRID
DIMENSIONS 1602 1 52
POINTS 83304 float
0 0 0
0.1 0 0
0.2 0 0
0.3 0 0
0.4 0 0
0.5 0 0
0.6 0 0
0.7 0 0
0.8 0 0
0.9 0 0
1 0 0
1.1 0 0
1.2 0 0
1.3 0 0
1.4 0 0
1.5 0 0
1.6 0 0
1.7 0 0
1.8 0 0
1.9 0 0
2 0 0
2.1 0 0
2.2 0 0
2.3 0 0
2.4 0 0
2.5 0 0
2.6 0 0
2.7 0 0
2.8 0 0
2.9 0 0
3 0 0
3.1 0 0
3.2 0 0
3.3 0 0
3.4 0 0
3.5 0 0
3.6 0 0
3.7 0 0
3.8 0 0
3.9 0 0
4 0 0
4.1 0 0
4.2 0 0
4.3 0 0
4.4 0 0
4.5 0 0
4.6 0 0
4.7 0 0
4.8 0 0
4.9 0 0
5 0 0
5.1 0 0
5.2 0 0
5.3 0 0
5.4 0 0
5.5 0 0
5.6 0 0
5.7 0 0
5.8 0 0
5.9 0 0
6 0 0
6.1 0 0
6.2 0 0
6.3 0 0
6.4 0 0
6.5 0 0
6.6 0 0
6.7 0 0
6.8 0 0
6.9 0 0
7 0 0
7.1 0 0
7.2 0 0
7.3 0 0
7.4 0 0
7.5 0 0
7.6 0 0
7.7 0 0
7.8 0 0
7.9 0 0
8 0 0
8.1 0 0
8.2 0 0
8.3 0 0
8.4 0 0
8.5 0 0
8.6 0 0
8.7 0 0
8.8 0 0
8.9 0 0
9 0 0
9.1 0 0
9.2 0 0
9.3 0 0
9.4 0 0
9.5 0 0
9.6 0 0
9.7 0 0
9.8 0 0
9.9 0 0
10 0 0
10.1 0 0
10.2 0 0
10.3 0 0
10.4 0 0
10.5 0 0
10.6 0 0
10.7 0 0
10.8 0 0
10.9 0 0
11 0 0
11.1 0 0
11.2 0 0
11.3 0 0
11.4 0 0
11.5 0 0
11.6 0 0
11.7 0 0
11.8 0 0
11.9 0 0
12 0 0
12.1 0 0
12.2 0 0
12.3 0 0
12.4 0 0
12.5 0 0
12.6 0 0
12.7 0 0
12.8 0 0
12.9 0 0
13 0 0
13.1 0 0
13.2 0 0
13.3 0 0
13.4 0 0
13.5 0 0
13.6 0 0
13.7 0 0
13.8 0 0
13.9 0 0
14 0 0
14.1 0 0
14.2 0 0
14.3 0 0
14.4 0 0
14.5 0 0
14.6 0 0
14.7 0 0
14.8 0 0
14.9 0 0
15 0 0
15.1 0 0
15.2 0 0
15.3 0 0
15.4 0 0
15.5 0 0
15.6 0 0
15.7 0 0
15.8 0 0
15.9 0 0
16 0 0
16.1 0 0
16.2 0 0
16.3 0 0
16.4 0 0
16.5 0 0
16.6 0 0
16.7 0 0
16.8 0 0
16.9 0 0
17 0 0
17.1 0 0
17.2 0 0
17.3 0 0
17.4 0 0
17.5 0 0
17.6 0 0
17.7 0 0
17.8 0 0
17.9 0 0
18 0 0
18.1 0 0
18.2 0 0
18.3 0 0
18.4 0 0
18.5 0 0
18.6 0 0
18.7 0 0
18.8 0 0
18.9 0 0
19 0 0
19.1 0 0
19.2 0 0
19.3 0 0
19.4 0 0
19.5 0 0
19.6 0 0
19.7 0 0
19.8 0 0
19.9 0 0
20 0 0
20.1 0 0
20.2 0 0
20.3 0 0
20.4 0 0
20.5 0 0
20.6 0 0
20.7 0 0
20.8 0 0
20.9 0 0
21 0 0
21.1 0 0
21.2 0 0
21.3 0 0
21.4 0 0
21.5 0 0
21.6 0 0
21.7 0 0
21.8 0 0
21.9 0 0
22 0 0
22.1 0 0
22.2 0 0
22.3 0 0
22.4 0 0
22.5 0 0
22.6 0 0
22.7 0 0
22.8 0 0
22.9 0 0
23 0 0
23.1 0 0
23.2 0 0
23.3 0 0
23.4 0 0
23.5 0 0
23.6 0 0
23.7 0 0
23.8 0 0
23.9 0 0
24 0 0
24.1 0 0
24.2 0 0
24.3 0 0
24.4 0 0
24.5 0 0
24.6 0 0
24.7 0 0
24.8 0 0
24.9 0 0
25 0 0
25.1 0 0
25.2 0 0
25.3 0 0
25.4 0 0
25.5 0 0
25.6 0 0
25.7 0 0
25.8 0 0
25.9 0 0
26 0 0
26.1 0 0
26.2 0 0
26.3 0 0
26.4 0 0
26.5 0 0
26.6 0 0
26.7 0 0
26.8 0 0
26.9 0 0
27 0 0
27.1 0 0
27.2 0 0
27.3 0 0
27.4 0 0
27.5 0 0
27.6 0 0
27.7 0 0
27.8 0 0
27.9 0 0
28 0 0
28.1 0 0
28.2 0 0
28.3 0 0
28.4 0 0
28.5 0 0
28.6 0 0
28.7 0 0
28.8 0 0
28.9 0 0
29 0 0
29.1 0 0
29.2 0 0
29.3 0 0
29.4 0 0
29.5 0 0
29.6 0 0
29.7 0 0
29.8 0 0
29.9 0 0
30 0 0
30.1 0 0
30.2 0 0
30.3 0 0
30.4 0 0
30.5 0 0
30.6 0 0
30.7 0 0
30.8 0 0
30.9 0 0
31 0 0
31.1 0 0
31.2 0 0
31.3 0 0
31.4 0 0
31.5 0 0
31.6 0 0
31.7 0 0
31.8 0 0
31.9 0 0
32 0 0
32.1 0 0
32.2 0 0
32.3 0 0
32.4 0 0
32.5 0 0
32.6 0 0
32.7 0 0
32.8 0 0
32.9 0 0
33 0 0
33.1 0 0
33.2 0 0
33.3 0 0
33.4 0 0
33.5 0 0
33.6 0 0
33.7 0 0
33.8 0 0
33.9 0 0
34 0 0
34.1 0 0
34.2 0 0
34.3 0 0
34.4 0 0
34.5 0 0
34.6 0 0
34.7 0 0
34.8 0 0
34.9 0 0
35 0 0
35.1 0 0
35.2 0 0
35.3 0 0
35.4 0 0
35.5 0 0
35.6 0 0
35.7 0 0
35.8 0 0
35.9 0 0
36 0 0
36.1 0 0
36.2 0 0
36.3 0 0
36.4 0 0
36.5 0 0
36.6 0 0
36.7 0 0
36.8 0 0
36.9 0 0
37 0 0
37.1 0 0
37.2 0 0
37.3 0 0
37.4 0 0
37.5 0 0
37.6 0 0
37.7 0 0
37.8 0 0
37.9 0 0
38 0 0
38.1 0 0
38.2 0 0
38.3 0 0
38.4 0 0
38.5 0 0
38.6 0 0
38.7 0 0
38.8 0 0
38.9 0 0
39 0 0
39.1 0 0
39.2 0 0
39.3 0 0
39.4 0 0
39.5 0 0
39.6 0 0
39.7 0 0
39.8 0 0
39.9 0 0
40 0 0
40.1 0 0
40.2 0 0
40.3 0 0
40.4 0 0
40.5 0 0
40.6 0 0
40.7 0 0
40.8 0 0
40.9 0 0
41 0 0
41.1 0 0
41.2 0 0
41.3 0 0
41.4 0 0
41.5 0 0
41.6 0 0
41.7 0 0
41.8 0 0
41.9 0 0
42 0 0
42.1 0 0
42.2 0 0
42.3 0 0
42.4 0 0
42.5 0 0
42.6 0 0
42.7 0 0
42.8 0 0
42.9 0 0
43 0 0
43.1 0 0
43.2 0 0
43.3 0 0
43.4 0 0
43.5 0 0
43.6 0 0
43.7 0 0
43.8 0 0
43.9 0 0
44 0 0
44.1 0 0
44.2 0 0
44.3 0 0
44.4 0 0
44.5 0 0
44.6 0 0
44.7 0 0
44.8 0 0
44.9 0 0
45 0 0
45.1 0 0
45.2 0 0
45.3 0 0
45.4 0 0
45.5 0 0
45.6 0 0
45.7 0 0
45.8 0 0
45.9 0 0
46 0 0
46.1 0 0
46.2 0 0
46.3 0 0
46.4 0 0
46.5 0 0
46.6 0 0
46.7 0 0
46.8 0 0
46.9 0 0
47 0 0
47.1 0 0
47.2 0 0
47.3 0 0
47.4 0 0
47.5 0 0
47.6 0 0
47.7 0 0
47.8 0 0
47.9 0 0
48 0 0
48.1 0 0
48.2 0 0
48.3 0 0
48.4 0 0
48.5 0 0
48.6 0 0
48.7 0 0
48.8 0 0
48.9 0 0
49 0 0
49.1 0 0
49.2 0 0
49.3 0 0
49.4 0 0
49.5 0 0
49.6 0 0
49.7 0 0
49.8 0 0
49.9 0 0
50 0 0
50.1 0 0
50.2 0 0
50.3 0 0
50.4 0 0
50.5 0 0
50.6 0 0
50.7 0 0
50.8 0 0
50.9 0 0
51 0 0
51.1 0 0
51.2 0 0
51.3 0 0
51.4 0 0
51.5 0 0
51.6 0 0
51.7 0 0
51.8 0 0
51.9 0 0
52 0 0
52.1 0 0
52.2 0 0
52.3 0 0
52.4 0 0
52.5 0 0
52.6 0 0
52.7 0 0
52.8 0 0
52.9 0 0
53 0 0
53.1 0 0
53.2 0 0
53.3 0 0
53.4 0 0
53.5 0 0
53.6 0 0
53.7 0 0
53.8 0 0
53.9 0 0
54 0 0
54.1 0 0
54.2 0 0
54.3 0 0
54.4 0 0
54.5 0 0
54.6 0 0
54.7 0 0
54.8 0 0
54.9 0 0
55 0 0
55.1 0 0
55.2 0 0
55.3 0 0
55.4 0 0
55.5 0 0
55.6 0 0
55.7 0 0
55.8 0 0
55.9 0 0
56 0 0
56.1 0 0
56.2 0 0
56.3 0 0
56.4 0 0
56.5 0 0
56.6 0 0
56.7 0 0
56.8 0 0
56.9 0 0
57 0 0
57.1 0 0
57.2 0 0
57.3 0 0
57.4 0 0
57.5 0 0
57.6 0 0
57.7 0 0
57.8 0 0
57.9 0 0
58 0 0
58.1 0 0
58.2 0 0
58.3 0 0
58.4 0 0
58.5 0 0
58.6 0 0
58.7 0 0
58.8 0 0
58.9 0 0
59 0 0
59.1 0 0
59.2 0 0
59.3 0 0
59.4 0 0
59.5 0 0
59.6 0 0
59.7 0 0
59.8 0 0
59.9 0 0
60 0 0
60.1 0 0
60.2 0 0
60.3 0 0
60.4 0 0
60.5 0 0
60.6 0 0
60.7 0 0
60.8 0 0
60.9 0 0
61 0 0
61.1 0 0
61.2 0 0
61.3 0 0
61.4 0 0
61.5 0 0
61.6 0 0
61.7 0 0
61.8 0 0
61.9 0 0
62 0 0
62.1 0 0
62.2 0 0
62.3 0 0
62.4 0 0
62.5 0 0
62.6 0 0
62.7 0 0
62.8 0 0
62.9 0 0
63 0 0
63.1 0 0
63.2 0 0
63.3 0 0
63.4 0 0
63.5 0 0
63.6 0 0
63.7 0 0
63.8 0 0
63.9 0 0
64 0 0
64.1 0 0
64.2 0 0
64.3 0 0
64.4 0 0
64.5 0 0
64.6 0 0
64.7 0 0
64.8 0 0
64.9 0 0
65 0 0
65.1 0 0
65.2 0 0
65.3 0 0
65.4 0 0
65.5 0 0
65.6 0 0
65.7 0 0
65.8 0 0
65.9 0 0
66 0 0
66.1 0 0
66.2 0 0
66.3 0 0
66.4 0 0
66.5 0 0
66.6 0 0
66.7 0 0
66.8 0 0
66.9 0 0
67 0 0
67.1 0 0
67.2 0 0
67.3 0 0
67.4 0 0
67.5 0 0
67.6 0 0
67.7 0 0
67.8 0 0
67.9 0 0
68 0 0
68.1 0 0
68.2 0 0
68.3 0 0
68.4 0 0
68.5 0 0
68.6 0 0
68.7 0 0
68.8 0 0
68.9 0 0
69 0 0
69.1 0 0
69.2 0 0
69.3 0 0
69.4 0 0
69.5 0 0
69.6 0 0
69.7 0 0
69.8 0 0
69.9 0 0
70 0 0
70.1 0 0
70.2 0 0
70.3 0 0
70.4 0 0
70.5 0 0
70.6 0 0
70.7 0 0
70.8 0 0
70.9 0 0
71 0 0
71.1 0 0
71.2 0 0
71.3 0 0
71.4 0 0
71.5 0 0
71.6 0 0
71.7 0 0
71.8 0 0
71.9 0 0
72 0 0
72.1 0 0
72.2 0 0
72.3 0 0
72.4 0 0
72.5 0 0
72.6 0 0
72.7 0 0
72.8 0 0
72.9 0 0
73 0 0
73.1 0 0
73.2 0 0
73.3 0 0
73.4 0 0
73.5 0 0
73.6 0 0
73.7 0 0
73.8 0 0
73.9 0 0
74 0 0
74.1 0 0
74.2 0 0
74.3 0 0
74.4 0 0
74.5 0 0
74.6 0 0
74.7 0 0
74.8 0 0
74.9 0 0
75 0 0
75.1 0 0
75.2 0 0
75.3 0 0
75.4 0 0
75.5 0 0
75.6 0 0
75.7 0 0
75.8 0 0
75.9 0 0
76 0 0
76.1 0 0
76.2 0 0
76.3 0 0
76.4 0 0
76.5 0 0
76.6 0 0
76.7 0 0
76.8 0 0
76.9 0 0
77 0 0
77.1 0 0
77.2 0 0
77.3 0 0
77.4 0 0
77.5 0 0
77.6 0 0
77.7 0 0
77.8 0 0
77.9 0 0
78 0 0
78.1 0 0
78.2 0 0
78.3 0 0
78.4 0 0
78.5 0 0
78.6 0 0
78.7 0 0
78.8 0 0
78.9 0 0
79 0 0
79.1 0 0
79.2 0 0
79.3 0 0
79.4 0 0
79.5 0 0
79.6 0 0
79.7 0 0
79.8 0 0
79.9 0 0
80 0 0
80.1 0 0
80.2 0 0
80.3 0 0
80.4 0 0
80.5 0 0
80.6 0 0
80.7 0 0
80.8 0 0
80.9 0 0
81 0 0
81.1 0 0
81.2 0 0
81.3 0 0
81.4 0 0
81.5 0 0
81.6 0 0
81.7 0 0
81.8 0 0
81.9 0 0
82 0 0
82.1 0 0
82.2 0 0
82.3 0 0
82.4 0 0
82.5 0 0
82.6 0 0
82.7 0 0
82.8 0 0
82.9 0 0
83 0 0
83.1 0 0
83.2 0 0
83.3 0 0
83.4 0 0
83.5 0 0
83.6 0 0
83.7 0 0
83.8 0 0
83.9 0 0
84 0 0
84.1 0 0
84.2 0 0
84.3 0 0
84.4 0 0
84.5 0 0
84.6 0 0
84.7 0 0
84.8 0 0
84.9 0 0
85 0 0
85.1 0 0
85.2 0 0
85.3 0 0
85.4 0 0
85.5 0 0
85.6 0 0
85.7 0 0
85.8 0 0
85.9 0 0
86 0 0
86.1 0 0
86.2 0 0
86.3 0 0
86.4 0 0
86.5 0 0
86.6 0 0
86.7 0 0
86.8 0 0
86.9 0 0
87 0 0
87.1 0 0
87.2 0 0
87.3 0 0
87.4 0 0
87.5 0 0
87.6 0 0
87.7 0 0
87.8 0 0
87.9 0 0
88 0 0
88.1 0 0
88.2 0 0
88.3 0 0
88.4 0 0
88.5 0 0
88.6 0 0
88.7 0 0
88.8 0 0
88.9 0 0
89 0 0
89.1 0 0
89.2 0 0
89.3 0 0
89.4 0 0
89.5 0 0
89.6 0 0
89.7 0 0
89.8 0 0
89.9 0 0
90 0 0
90.1 0 0
90.2 0 0
90.3 0 0
90.4 0 0
90.5 0 0
90.6 0 0
90.7 0 0
90.8 0 0
90.9 0 0
91 0 0
91.1 0 0
91.2 0 0
91.3 0 0
91.4 0 0
91.5 0 0
91.6 0 0
91.7 0 0
91.8 0 0
91.9 0 0
92 0 0
92.1 0 0
92.2 0 0
92.3 0 0
92.4 0 0
92.5 0 0
92.6 0 0
92.7 0 0
92.8 0 0
92.9 0 0
93 0 0
93.1 0 0
93.2 0 0
93.3 0 0
93.4 0 0
93.5 0 0
93.6 0 0
93.7 0 0
93.8 0 0
93.9 0 0
94 0 0
94.1 0 0
94.2 0 0
94.3 0 0
94.4 0 0
94.5 0 0
94.6 0 0
94.7 0 0
94.8 0 0
94.9 0 0
95 0 0
95.1 0 0
95.2 0 0
95.3 0 0
95.4 0 0
95.5 0 0
95.6 0 0
95.7 0 0
95.8 0 0
95.9 0 0
96 0 0
96.1 0 0
96.2 0 0
96.3 0 0
96.4 0 0
96.5 0 0
96.6 0 0
96.7 0 0
96.8 0 0
96.9 0 0
97 0 0
97.1 0 0
97.2 0 0
97.3 0 0
97.4 0 0
97.5 0 0
97.6 0 0
97.7 0 0
97.8 0 0
97.9 0 0
98 0 0
98.1 0 0
98.2 0 0
98.3 0 0
98.4 0 0
98.5 0 0
98.6 0 0
98.7 0 0
98.8 0 0
98.9 0 0
99 0 0
99.1 0 0
99.2 0 0
99.3 0 0
99.4 0 0
99.5 0 0
99.6 0 0
99.7 0 0
99.8 0 0
99.9 0 0
100 0 0
100.1 0 0
100.2 0 0
100.3 0 0
100.4 0 0
100.5 0 0
100.6 0 0
100.7 0 0
100.8 0 0
100.9 0 0
101 0 0
101.1 0 0
101.2 0 0
101.3 0 0
101.4 0 0
101.5 0 0
101.6 0 0
101.7 0 0
101.8 0 0
101.9 0 0
102 0 0
102.1 0 0
102.2 0 0
102.3 0 0
102.4 0 0
102.5 0 0
102.6 0 0
102.7 0 0
102.8 0 0
102.9 0 0
103 0 0
103.1 0 0
103.2 0 0
103.3 0 0
103.4 0 0
103.5 0 0
103.6 0 0
103.7 0 0
103.8 0 0
103.9 0 0
104 0 0
104.1 0 0
104.2 0 0
104.3 0 0
104.4 0 0
104.5 0 0
104.6 0 0
104.7 0 0
104.8 0 0
104.9 0 0
105 0 0
105.1 0 0
105.2 0 0
105.3 0 0
105.4 0 0
105.5 0 0
105.6 0 0
105.7 0 0
105.8 0 0
105.9 0 0
106 0 0
106.1 0 0
106.2 0 0
106.3 0 0
106.4 0 0
106.5 0 0
106.6 0 0
106.7 0 0
106.8 0 0
106.9 0 0
107 0 0
107.1 0 0
107.2 0 0
107.3 0 0
107.4 0 0
107.5 0 0
107.6 0 0
107.7 0 0
107.8 0 0
107.9 0 0
108 0 0
108.1 0 0
108.2 0 0
108.3 0 0
108.4 0 0
108.5 0 0
108.6 0 0
108.7 0 0
108.8 0 0
108.9 0 0
109 0 0
109.1 0 0
109.2 0 0
109.3 0 0
109.4 0 0
109.5 0 0
109.6 0 0
109.7 0 0
109.8 0 0
109.9 0 0
110 0 0
110.1 0 0
110.2 0 0
110.3 0 0
110.4 0 0
110.5 0 0
110.6 0 0
110.7 0 0
110.8 0 0
110.9 0 0
111 0 0
111.1 0 0
111.2 0 0
111.3 0 0
111.4 0 0
111.5 0 0
111.6 0 0
111.7 0 0
111.8 0 0
111.9 0 0
112 0 0
[...]
POINT_DATA 83304

SCALARS pressure float 1
LOOKUP_TABLE default
0
0
0
0
0
0
0
0
0
0
0
0
0
0
0
0
0
0
0
0
0
0
0
0
0
0
0
0
0
0
0
0
0
0
0
0
0
0
0
0
0
0
0
0
0
0
0
0
0
0
0
0
0
0
0
0
0
0
0
0
0
0
0
0
0
0
0
0
0
0
0
0
0
0
0
0
0
0
0
0
0
0
0
0
0
0
0
0
0
0
0
0
0
0
0
0
0
0
0
0
0
0
0
0
0
0
0
0
0
0
0
0
0
0
0
0
0
0
0
0
0
0
0
0
0
0
0
0
0
0
0
0
0
0
0
0
0
0
0
0
0
0
0
0
0
0
0
0
0
0
0
0
0
0
0
0
0
0
0
0
0
0
0
0
0
0
0
0
0
0
0
0
0
0
0
0
0
0
0
0
0
0
0
0
0
0
0
0
0
0
0
0
0
0
0
0
0
0
0
0
0
0
0
0
0
0
0
0
0
0
0
0
0
0
0
0
0
0
0
0
0
0
0
0
0
0
0
0
0
0
0
0
0
0
0
0
0
0
0
0
0
0
0
0
0
0
0
0
0
0
0
0
0
0
0
0
0
0
0
0
0
0
0
0
0
0
0
0
0
0
0
0
0
0
0
0
0
0
0
0
0
0
0
0
0
0
0
0
0
0
0
0
0
0
0
0
0
0
0
0
0
0
0
0
0
0
0
0
0
0
0
0
0
0
0
0
0
0
0
0
0
0
0
0
0
0
0
0
0
0
0
0
0
0
0
0
0
0
0
0
0
0
0
0
0
0
0
0
0
0
0
0
0
0
0
0
0
0
0
0
0
0
0
0
0
0
0
0
0
0
0
0
0
0
0
0
0
0
0
0
0
0
0
0
0
0
0
0
0
0
0
0
0
0
0
0
0
0
0
0
0
0
0
0
0
0
0
0
0
0
0
0
0
0
0
0
0
0
0
0
0
0
0
0
0
0
0
0
0
0
0
0
0
0
0
0
0
0
0
0
0
0
0
0
0
0
0
0
0
0
0
0
0
0
0
0
0
0
0
0
0
0
0
0
0
0
0
0
0
0
0
0
0
0
0
0
0
0
0
0
0
0
0
0
0
0
0
0
0
0
0
0
0
0
0
0
0
0
0
0
0
0
0
0
0
0
0
0
0
0
0
0
0
0
0
0
0
0
0
0
0
0
0
0
0
0
0
0
0
0
0
0
0
0
0
0
0
0
0
0
0
0
0
0
0
0
0
0
0
0
0
0
0
0
0
0
0
0
0
0
0
0
0
0
0
0
0
0
0
0
0
0
0
0
0
0
0
0
0
0
0
0
0
0
0
0
0
0
0
0
0
0
0
0
0
0
0
0
0
0
0
0
0
0
0
0
0
0
0
0
0
0
0
0
0
0
0
0
0
0
0
0
0
0
0
0
0
0
0
0
0
0
0
0
0
0
0
0
0
0
0
0
0
0
0
0
0
0
0
0
0
0
0
0
0
0
0
0
0
0
0
0
0
0
0
0
0
0
0
0
0
0
0
0
0
0
0
0
0
0
0
0
0
0
0
0
0
0
0
0
0
0
0
0
0
0
0
0
0
0
0
0
0
0
0
0
0
0
0
0
0
0
0
0
0
0
0
0
0
0
0
0
0
0
0
0
0
0
0
0
0
0
0
0
0
0
0
0
0
0
0
0
0
0
0
0
0
0
0
0
0
0
0
0
0
0
0
0
0
0
0
0
0
0
0
0
0
0
0
0
0
0
0
0
0
0
0
0
0
0
0
0
0
0
0
0
0
0
0
0
0
0
0
0
0
0
0
0
0
0
0
0
0
0
0
0
0
0
0
0
0
0
0
0
0
0
0
0
0
0
0
0
0
0
0
0
0
0
0
0
0
0
0
0
0
0
0
0
0
0
0
0
0
0
0
0
0
0
0
0
0
0
0
0
0
0
0
0
0
0
0
0
0
0
0
0
0
0
0
0
0
0
0
0
0
0
0
0
0
0
0
0
0
0
0
0
0
0
0
0
0
0
0
0
0
0
0
0
0
0
0
0
0
0
0
0
0
0
0
0
0
0
0
0
0
0
0
0
0
0
0
0
0
0
0
0
0
0
0
0
0
0
0
0
0
0
0
0
0
0
0
0
0
0
0
0
0
0
0
0
0
0
0
0
0
0
0
0
0
0
0
0
0
0
0
0
0
0
0
0
0
0
0
0
0
0
0
0
0
0
0
0
0
0
0
0
0
0
0
0
0
0
0
0
0
0
0
0
0
0
0
0
0
0
0
0
0
0
0
0
0
0
0
0
0
0
0
0
0
0
0
0
0
0
0
0
0
0
0
0
0
0
0
0
0
0
0
0
0
0
0
0
0
0
0
0
0
0
0
0
0
0
0
0
0
0
0
0
0
0
0
0
0
0
0
0
0
0
0
0
0
0
0
0
0
0
0
0
0
0
0
0
0
0
0
0
0
0
0
0
0
0
0
0
0
0
0
0
0
0
0
0
0
0
0
0
0
0
0
0
0
0
0
0
0
0
0
0
0
0
0
0
0
0
0
0
0
0
0
0
0
0
0
0
0
0
0
0
0
0
0
0
0
0
0
0
0
0
0
0
0
0
0
0
0
0
0
0
0
0
0
0
0
0
0
0
0
0
0
0
0
0
0
0
0
0
0
0
0
0
0
0
0
0
0
0
0
0
0
0
0
0
0
0
0
0
0
0
0
0
0
0
0
0
0
0
0
0
0
0
0
0
0
0
0
0
0
0
0
0
0
0
0
0
0
0
0
0
0
0
0
0
0
0
0
0
0
0
0
0
0
0
0
0
0
0
0
0
0
0
0
0
0
0
0
0
0
0
0
0
0
0
0
0
0
0
0
0
0
0
0
0
0
0
0
0
0
0
0
0
0
0
0
0
0
0
0
0
0
0
0
0
0
0
0
0
0
0
0
0
0
0
0
0
0
0
0
0
0
0
0
0
0
0
0
0
0
0
0
0
0
0
0
0
0
0
0
0
0
0
0
0
0
0
0
0
0
0
0
0
0
0
0
0
0
0
0
0
0
0
0
0
0
0
0
0
0
0
0
0
0
0
0
0
0
0
0
0
0
0
0
0
0
0
0
0
0
0
0
0
0
0
0
0
0
0
0
0
0
0
0
0
0
0
0
0
0
0
0
0
0
0
0
0
0
0
0
0
0
0
0
0
0
0
0
0
0
0
0
0
0
0
0
0
0
0
0
0
0
0
0
0
0
0
0
0
0
0
0
0
0
0
0
0
0
0
0
0
0
0
0
0
0
0
0
0
0
0
0
0
0
0
0
0
0
0
0
0
0
0
0
0
0
0
0
0
0
0
0
0
0
0
0
0
0
0
0
0
0
0
0
0
0
0
0
0
0
0
0
0
0
0
0
0
0
0
0
0
0
0
0
0
0
0
0
0
0
0
0
0
0
0
0
0
0
0
0
0
0
0
0
0
0
0
0
0
0
0
0
0
0
0
0
0
0
0
0
0
0
0
0
0
0
0
0
0
0
0
0
0
0
0
0
0
0
0
0
0
0
0
0
0
0
0
0
0
0
0
0
0
0
0
0
0
0
0
0
0
0
0
0
0
0
0
0
0
0
0
0
0
0
0
0
0.0776415
0.052903
0.0436505
0.0357426
0.03048
0.0271088
0.0248019
0.023116
0.0218008
0.0207277
0.0198235
0.0190436
0.0183596
0.0177519
0.0172066
0.0167134
0.0162644
0.0158532
0.0154749
0.0151254
0.0148012
0.0144994
0.0142175
0.0139534
0.0137053
0.0134715
0.0132508
0.0130419
0.0128437
0.0126554
0.012476
0.0123049
0.0121413
0.0119848
0.0118348
0.0116908
0.0115523
0.0114189
0.0112901
0.0111653
0.0110439
0.0109253
0.0108088
0.0106933
0.0105781
0.0104623
0.0103452
0.0102264
0.0101061
0.0099853
0.00986612
0.00975215
0.00964858
0.00956232
0.00950186
0.0094768
0.00949711
0.00957183
0.00970752
0.00990627
0.0101635
0.0104656
0.0107885
0.0110951
0.011336
0.0114492
0.011363
0.0110013
0.0102912
0.00917559
0.00762355
0.00564526
0.00330994
0.000759514
-0.0017843
-0.004035
-0.00567887
-0.00641928
-0.0060153
-0.00430846
-0.00123808
0.00316773
0.00880677
0.0155188
0.0231113
0.0313757
0.0401007
0.0490771
0.0581042
0.0669815
0.0755254
0.0835493
0.0908457
0.0972138
0.102495
0.106575
0.109366
0.1108
0.110845
0.109522
0.106909
0.103132
0.0983565
0.092779
0.0866141
0.0800813
0.0733899
0.0667245
0.0602364
0.0540407
0.0482173
0.0428156
0.0378604
0.0333566
0.029295
0.0256566
0.0224157
0.0195427
0.0170064
0.0147754
0.0128189
0.0111077
0.00961445
0.00831396
0.00718332
0.00620181
0.00535086
0.00461396
0.00397645
0.0034254
0.00294946
0.00253867
0.00218433
0.00187883
0.00161558
0.00138884
0.0011936
0.00102556
0.000880975
0.000756606
0.000649656
0.00055771
0.000478682
0.000410773
0.00035243
0.000302318
0.000259283
0.000222333
0.000190613
0.000163389
0.000140028
0.000119985
0.000102791
8.80455e-05
7.54008e-05
6.45598e-05
5.5267e-05
4.73027e-05
4.04781e-05
3.46313e-05
2.96231e-05
2.53341e-05
2.16616e-05
1.85176e-05
1.58266e-05
1.35238e-05
1.15535e-05
9.8682e-06
8.42686e-06
7.19444e-06
6.14087e-06
5.24035e-06
4.47081e-06
3.81332e-06
3.2517e-06
2.77205e-06
2.36246e-06
2.01271e-06
1.71407e-06
1.4591e-06
1.24154e-06
1.05605e-06
8.98109e-07
7.6379e-07
6.49645e-07
5.52667e-07
4.70298e-07
4.00454e-07
3.41486e-07
2.92035e-07
2.50791e-07
2.16258e-07
1.86645e-07
1.5999e-07
1.3453e-07
1.09213e-07
8.41283e-08
6.06346e-08
4.10387e-08
2.78424e-08
2.277e-08
2.59102e-08
3.53107e-08
4.72341e-08
5.70564e-08
6.05565e-08
5.51863e-08
4.0899e-08
2.02465e-08
-2.3039e-09
-2.16278e-08
-3.33879e-08
-3.52241e-08
-2.73432e-08
-1.23617e-08
5.51091e-09
2.1671e-08
3.23334e-08
3.54192e-08
3.09069e-08
2.06085e-08
7.5003e-09
-5.15819e-09
-1.46565e-08
-1.94067e-08
-1.91494e-08
-1.48004e-08
-8.03626e-09
-7.68873e-10
5.33876e-09
9.20526e-09
1.04601e-08
9.38002e-09
6.68857e-09
3.29655e-09
5.80523e-11
-2.40414e-09
-3.77949e-09
-4.06085e-09
-3.47034e-09
-2.35321e-09
-1.07231e-09
7.32997e-11
8.93921e-10
1.31855e-09
1.37618e-09
1.16113e-09
7.94571e-10
3.91779e-10
4.04576e-11
-2.08605e-10
-3.40331e-10
-3.67159e-10
-3.17812e-10
-2.26356e-10
-1.23738e-10
-3.27547e-11
3.36725e-11
7.16577e-11
8.40061e-11
7.73548e-11
5.95591e-11
3.77625e-11
1.72949e-11
1.31886e-12
-8.97596e-12
-1.38708e-11
-1.45199e-11
-1.24104e-11
-8.96178e-12
-5.29117e-12
-2.12506e-12
1.81793e-13
1.56562e-12
2.15068e-12
2.15239e-12
1.80227e-12
1.30017e-12
7.91524e-13
3.63772e-13
5.47173e-14
-1.33634e-13
-2.20571e-13
-2.34442e-13
-2.03942e-13
-1.53039e-13
-9.88744e-14
-5.17658e-14
-1.6394e-14
6.54488e-15
1.87193e-14
2.28439e-14
2.17627e-14
1.79164e-14
1.31152e-14
8.52e-15
4.74203e-15
1.98965e-15
2.16328e-16
-7.56408e-16
-1.15019e-15
-1.17465e-15
-9.99628e-16
-7.46709e-16
-4.92483e-16
-2.7757e-16
-1.17176e-16
-1.0742e-17
5.04683e-17
7.80874e-17
8.3432e-17
7.58829e-17
6.23526e-17
4.73987e-17
3.36536e-17
2.23462e-17
1.37889e-17
7.76942e-18
3.83249e-18
1.46153e-18
1.81089e-19
-3.96653e-19
-5.60865e-19
-5.10708e-19
-3.72607e-19
-2.19311e-19
-8.70531e-20
1.07586e-20
7.3558e-20
1.06921e-19
1.18447e-19
1.15494e-19
1.04139e-19
8.88879e-20
7.27677e-20
5.7606e-20
4.43441e-20
3.33241e-20
2.45194e-20
1.77041e-20
1.25667e-20
8.78173e-21
6.04876e-21
4.11064e-21
2.75852e-21
1.82927e-21
1.19947e-21
7.7812e-22
4.99642e-22
3.17698e-22
2.00115e-22
1.24912e-22
7.72901e-23
4.74202e-23
2.8856e-23
1.74198e-23
1.04348e-23
6.20362e-24
3.66107e-24
2.14511e-24
1.24808e-24
7.21189e-25
4.13938e-25
2.36026e-25
1.33714e-25
7.52729e-26
4.2111e-26
2.34149e-26
1.29413e-26
7.11032e-27
3.88391e-27
2.10939e-27
1.13917e-27
6.11783e-28
3.26753e-28
1.73574e-28
9.17122e-29
4.8203e-29
2.52031e-29
1.31098e-29
6.78462e-30
3.49356e-30
1.78998e-30
9.12624e-31
4.63041e-31
2.33805e-31
1.17495e-31
5.87668e-32
2.9256e-32
1.44974e-32
7.15109e-33
3.51142e-33
1.71648e-33
8.3533e-34
4.04723e-34
1.95234e-34
9.37704e-35
4.48441e-35
2.13545e-35
1.01259e-35
4.78137e-36
2.24833e-36
1.05286e-36
4.91016e-37
2.28061e-37
1.055e-37
4.86078e-38
2.23064e-38
1.01961e-38
4.64226e-39
2.10538e-39
9.51146e-40
4.28047e-40
1.91899e-40
8.57047e-41
3.81325e-41
1.69027e-41
7.46448e-42
3.28422e-42
1.43968e-42
6.28795e-43
2.73636e-43
1.18649e-43
5.12622e-44
2.20687e-44
9.46698e-45
4.0468e-45
1.7238e-45
7.31718e-46
3.09522e-46
1.30478e-46
5.48142e-47
2.29489e-47
9.57534e-48
3.98178e-48
1.65021e-48
6.81626e-49
2.80612e-49
1.1514e-49
4.70887e-50
1.91946e-50
7.79876e-51
3.15835e-51
1.27494e-51
5.13007e-52
2.05762e-52
8.22662e-53
3.27869e-53
1.30259e-53
5.1588e-54
2.03672e-54
8.01607e-55
3.14517e-55
1.23023e-55
4.79725e-56
1.86496e-56
7.22808e-57
2.79292e-57
1.07593e-57
4.13238e-58
1.5824e-58
6.04139e-59
2.29968e-59
8.72794e-60
3.30276e-60
1.24614e-60
4.68802e-61
1.75852e-61
6.57725e-62
2.45295e-62
9.12183e-63
3.38245e-63
1.25066e-63
4.61122e-64
1.69535e-64
6.21554e-65
2.27236e-65
8.28434e-66
3.01181e-66
1.09192e-66
3.94774e-67
1.42334e-67
5.1177e-68
1.83506e-68
6.56207e-69
2.34018e-69
8.32303e-70
2.95216e-70
1.04431e-70
3.68429e-71
1.29633e-71
4.54908e-72
1.59212e-72
5.55751e-73
1.93481e-73
6.71825e-74
2.32668e-74
8.03678e-75
2.76884e-75
9.51453e-76
3.26102e-76
1.11481e-76
3.80131e-77
1.29287e-77
4.38597e-78
1.48413e-78
5.00931e-79
1.6865e-79
5.66369e-80
1.89724e-80
6.33952e-81
2.11303e-81
7.02548e-82
2.33006e-82
7.70876e-83
2.54408e-83
8.37546e-84
2.75056e-84
9.01101e-85
2.94487e-85
9.60072e-86
3.12241e-86
1.01304e-86
3.2788e-87
1.05867e-87
3.41011e-88
1.09582e-88
3.51296e-89
1.12351e-89
3.58469e-90
1.14104e-90
3.62351e-91
1.14799e-91
3.6285e-92
1.1442e-92
3.59971e-93
1.12986e-93
3.53813e-94
1.1054e-94
3.44561e-95
1.07156e-95
3.32482e-96
1.02927e-96
3.17907e-97
9.79678e-98
3.01219e-98
9.24058e-99
2.82837e-99
8.63767e-100
2.63198e-100
8.00195e-101
2.42739e-101
7.34712e-102
2.21886e-102
6.6862e-103
2.01034e-103
6.03119e-104
1.80543e-104
5.39271e-105
1.60725e-105
4.77981e-106
1.41838e-106
4.19982e-107
1.24088e-107
3.65837e-108
1.07624e-108
3.15936e-109
9.25457e-110
2.7051e-110
7.8901e-111
2.29645e-111
6.66973e-112
1.93303e-112
5.59049e-113
1.61341e-113
4.6465e-114
1.33535e-114
3.82959e-115
1.09598e-115
3.13001e-116
8.92041e-117
2.53701e-117
7.20047e-118
2.03939e-118
5.76428e-119
1.6259e-119
4.57671e-120
1.28565e-120
3.60415e-121
1.00832e-121
2.8152e-122
7.844e-123
2.18115e-123
6.05281e-124
1.6763e-124
4.63309e-125
1.27796e-125
3.518e-126
9.66503e-127
2.64999e-127
7.25138e-128
1.98031e-128
5.39741e-129
1.46817e-129
3.98576e-130
1.07992e-130
2.92021e-131
7.88108e-132
2.12279e-132
5.70662e-133
1.5311e-133
4.1e-134
1.09577e-134
2.9229e-135
7.78157e-136
2.06768e-136
5.48354e-137
1.45146e-137
3.83455e-138
1.0111e-138
2.66097e-139
6.98972e-140
1.83254e-140
4.79534e-141
1.25246e-141
3.26502e-142
8.49546e-143
2.20632e-143
5.7192e-144
1.47974e-144
3.82138e-145
9.85018e-146
2.53429e-146
6.50819e-147
1.66823e-147
4.2682e-148
1.09001e-148
2.77851e-149
7.06954e-150
1.79544e-150
4.55147e-151
1.15169e-151
2.90887e-152
7.33361e-153
1.84552e-153
4.63585e-154
1.16238e-154
2.90926e-155
7.2682e-156
1.81254e-156
4.51193e-157
1.12113e-157
2.78079e-158
6.88495e-159
1.70159e-159
4.1979e-160
1.03379e-160
2.54133e-161
6.23614e-162
1.52756e-162
3.73519e-163
9.11711e-164
2.22144e-164
5.40314e-165
1.31188e-165
3.17963e-166
7.69306e-167
1.85806e-167
4.47984e-168
1.07822e-168
2.59056e-169
6.21335e-170
1.48766e-170
3.55574e-171
8.48405e-172
2.02082e-172
4.8051e-173
1.14059e-173
2.70278e-174
6.39362e-175
1.50987e-175
3.55949e-176
8.37716e-177
1.96818e-177
4.6163e-178
1.0809e-178
2.52663e-179
5.89605e-180
1.37356e-180
3.19449e-181
7.41691e-182
1.71915e-182
3.97812e-183
9.18992e-184
2.11943e-184
4.8798e-185
1.12166e-185
2.57392e-186
5.89667e-187
1.34865e-187
3.07943e-188
7.01978e-189
1.59757e-189
3.62977e-190
8.23348e-191
1.86455e-191
4.21552e-192
9.51518e-193
2.14423e-193
4.82411e-194
1.08356e-194
2.42988e-195
5.44011e-196
1.21598e-196
2.71357e-197
6.04578e-198
1.34481e-198
2.98656e-199
6.62186e-200
1.46585e-200
3.2397e-201
7.1486e-202
1.57486e-202
3.46393e-203
7.60682e-204
1.6678e-204
3.65086e-205
7.97912e-206
1.74111e-206
3.79323e-207
8.25097e-208
1.7919e-208
3.88544e-209
8.41164e-210
1.81819e-210
3.92388e-211
8.45494e-212
1.81897e-212
3.90717e-213
8.37955e-214
1.79433e-214
3.83626e-215
8.18915e-216
1.7454e-216
3.71432e-217
7.89207e-218
1.67429e-218
3.54652e-219
7.50074e-220
1.58394e-220
3.33967e-221
7.03078e-222
1.47788e-222
3.10177e-223
6.50004e-224
1.36007e-224
2.84148e-225
5.92744e-226
1.23461e-226
2.56764e-227
5.33189e-228
1.10553e-228
2.28879e-229
4.73134e-230
9.76582e-231
2.01271e-231
4.1419e-232
8.51076e-233
1.74617e-233
3.57729e-234
7.31768e-235
1.49467e-235
3.04838e-236
6.20796e-237
1.26236e-237
2.56314e-238
5.19658e-239
1.05201e-239
2.12659e-240
4.29245e-241
8.6514e-242
1.74112e-242
3.49891e-243
7.02102e-244
1.4068e-244
2.81466e-245
5.62324e-246
1.12179e-246
2.23463e-247
4.44495e-248
8.82871e-249
1.75104e-249
3.4679e-250
6.85815e-251
1.35431e-251
2.67058e-252
5.25853e-253
1.03395e-253
2.03005e-254
3.98008e-255
7.79208e-256
1.52333e-256
2.97379e-257
5.79706e-258
1.12846e-258
2.19353e-259
4.25778e-260
8.25289e-261
1.59739e-261
3.08746e-262
5.95904e-263
1.14851e-263
2.21046e-264
4.24832e-265
8.15341e-266
1.56261e-266
2.99054e-267
5.71532e-268
1.09074e-268
2.07872e-269
3.95604e-270
7.51831e-271
1.42683e-271
2.70409e-272
5.11759e-273
9.67176e-274
1.82534e-274
3.44016e-275
6.47458e-276
1.21687e-276
2.28391e-277
4.28067e-278
8.01212e-279
1.49756e-279
2.79529e-280
5.2104e-281
9.69885e-282
1.80291e-282
3.34684e-283
6.20442e-284
1.14862e-284
2.12353e-285
3.92057e-286
7.22852e-287
1.33094e-287
2.44727e-288
4.49381e-289
8.24063e-290
1.5091e-290
2.75989e-291
5.04055e-292
9.19348e-293
1.67455e-293
3.04601e-294
5.53328e-295
1.00381e-295
1.81861e-296
3.29039e-297
5.9453e-298
1.07281e-298
1.93326e-299
3.47921e-300
6.25308e-301
1.12236e-301
2.01183e-302
3.60144e-303
6.43853e-304
1.14954e-304
2.04968e-305
3.64986e-306
6.49075e-307
1.15277e-307
2.04464e-308
3.6218e-309
6.40708e-310
1.13195e-310
1.99723e-311
3.51933e-312
6.19334e-313
1.08849e-313
1.91055e-314
3.34908e-315
5.86313e-316
1.02511e-316
1.78998e-317
3.1215e-318
5.4365e-319
9.45642e-320
1.64277e-320
2.84582e-321
4.94066e-322
7.90505e-323
4.94066e-324
0
0
0
0
0
0
0
0
0
0
0
0
0
0
0
0
0
0
0
0
0
0
0
0
0
0
0
0
0
0
0
0
0
0
0
0
0
0
0
0
0
0
0
0
0
0
0
0
0
0
0
0
0
0
0
0
0
0
0
0
0
0
0
0
0
0
0
0
0
0
0
0
0
0
0
0
0
0
0
0
0
0
0
0
0
0
0
0
0
0
0
0
0
0
0
0
0
0
0
0
0
0
0
0
0
0
0
0
0
0
0
0
0
0
0
0
0
0
0
0
0
0
0
0
0
0
0
0
0
0
0
0
0
0
0
0
0
0
0
0
0
0
0
0
0
0
0
0
0
0
0
0
0
0
0
0
0
0
0
0
0
0
0
0
0
0
0
0
0
0
0
0
0
0
0
0
0
0
0
0
0
0
0
0
0
0
0
0
0
0
0
0
0
0
0
0
0
0
0
0
0
0
0
0
0
0
0
0
0
0
0
0
0
0
0
0
0
0
0
0
0
0
0
0
0
0
0
0
0
0
0
0
0
0
0
0
0
0
0
0
0
0
0
0
0
0
0
0
0
0
0
0
0
0
0
0
0
0
0
0
0
0
0
0
0
0
0
0
0
0
0
0
0
0
0
0
0
0
0
0
0
0
0
0
0
0
0
0
0
0
0
0
0
0
0
0
0
0
0
0
0
0
0
0
0
0
0
0
0
0
0
0
0
0
0
0
0
0
0
0
0
0
0
0
0
0
0
0
0
0
0
0
0
0
0
0
0
0
0
0
0
0
0
0
0
0
0
0
0
0
0
0
0
0
0
0
0
0
0
0
0
0
0
0
0
0
0
0
0
0
0
0
0
0
0
0
0
0
0
0
0
0
0
0
0
0
0
0
0
0
0
0
0
0
0
0
0
0
0
0
0
0
0
0
0
0
0
0
0
0
0
0
0
0
0
0
0
0
0
0
0
0
0
0
0
0
0
0
0
0
0
0
0
0
0
0
0
0
0
0
0
0
0
0
0
0
0
0
0
0
0
0
0
0
0
0
0
0
0
0
0
0
0
0
0
0
0
0
0
0
0
0
0
0
0
0
0
0
0
0
0
0
0
0
0
0
0
0
0
0
0
0
0
0
0
0
0
0
0
0
0
0
0
0
0
0
0
0
0
0
0
0
0
0
0
0
0
0
0
0
0
0
0
0
0
0
0
0
0
0
0
0
0
0
0
0
0
0
0
0
0
0
0
0
0
0
0
0
0
0
0
0
0
0
0
0
0
0
0
0
0
0
0
0
0
0
0
0
0
0
0
0
0
0
0
0
0
0
0
0
0
0
0
0
0
0
0
0
0
0
0
0
0
0
0
0
0
0
0
0
0
0
0
0
0
0
0
0
0
0
0
0
0
0
0
0
0
0
0
0
0
0
0
0
0
0
0
0
0
0
0
0
0
0
0
0
0
0
0
0
0
0
0
0
0
0
0
0
0
0
0
0
0
0
0
0
0
0
0
0
0
0
0
0
0
0
0
0
0
0
0
0
0
0
0
0
0
0
0
0
0
0
0
0
0
0
0
0
0
0
0
0
0
0
0
0
0
0
0
0
0
0
0
0
0
0
0
0
0
0.062787
0.0345542
0.0299574
0.025277
0.0221391
0.0200069
0.0184495
0.0172639
0.0163155
0.0155312
0.0148652
0.0142884
0.013781
0.0133294
0.0129237
0.0125563
0.0122216
0.0119149
0.0116326
0.0113716
0.0111293
0.0109037
0.0106929
0.0104953
0.0103096
0.0101347
0.00996941
0.00981294
0.00966448
0.00952335
0.00938892
0.00926067
0.00913811
0.0090208
0.00890835
0.00880041
0.00869662
0.00859664
0.00850011
0.00840664
0.00831578
0.00822703
0.00813981
0.00805348
0.00796734
0.00788073
0.00779306
0.00770399
0.00761355
0.0075224
0.00743201
0.00734491
0.0072649
0.00719704
0.00714768
0.00712411
0.00713401
0.00718457
0.00728124
0.00742637
0.00761744
0.00784543
0.0080933
0.00833469
0.00853358
0.00864454
0.00861447
0.0083859
0.00790236
0.00711689
0.00599985
0.00454892
0.00280371
0.000857571
-0.00113311
-0.00295398
-0.00435903
-0.00510652
-0.00499331
-0.00387881
-0.00170462
0.0015091
0.00567737
0.0106633
0.0162996
0.022402
0.0287847
0.0352658
0.0416714
0.047841
0.0536375
0.0589395
0.0636289
0.0676064
0.0708086
0.0732045
0.074779
0.0755263
0.0754553
0.0745964
0.0730008
0.0707361
0.0678815
0.0645263
0.060769
0.0567164
0.0524793
0.0481667
0.0438785
0.0396998
0.0356985
0.0319241
0.0284093
0.0251721
0.0222186
0.0195458
0.0171437
0.0149978
0.0130907
0.0114033
0.00991601
0.0086095
0.00746508
0.00646513
0.0055933
0.0048346
0.00417544
0.00360356
0.00310802
0.00267911
0.00230821
0.00198775
0.00171107
0.00147235
0.0012665
0.00108908
0.000936243
0.000804635
0.00069135
0.00059387
0.000510018
0.000437909
0.000375915
0.000322632
0.000276845
0.00023751
0.000203725
0.000174712
0.000149803
0.000128422
0.000110071
9.43256e-05
8.08171e-05
6.92303e-05
5.92935e-05
5.07733e-05
4.34691e-05
3.72085e-05
3.18433e-05
2.72464e-05
2.33084e-05
1.99356e-05
1.70474e-05
1.45745e-05
1.24578e-05
1.06462e-05
9.09613e-06
7.77006e-06
6.63587e-06
5.66599e-06
4.8368e-06
4.128e-06
3.52224e-06
3.00464e-06
2.56246e-06
2.18481e-06
1.8623e-06
1.58691e-06
1.35173e-06
1.15088e-06
9.79395e-07
8.33084e-07
7.08413e-07
6.02338e-07
5.12185e-07
4.35587e-07
3.70487e-07
3.15194e-07
2.68398e-07
2.29115e-07
1.96505e-07
1.69631e-07
1.4726e-07
1.27826e-07
1.09646e-07
9.13331e-08
7.22857e-08
5.3027e-08
3.51956e-08
2.11075e-08
1.29736e-08
1.20152e-08
1.77999e-08
2.80708e-08
3.91901e-08
4.70952e-08
4.84805e-08
4.18167e-08
2.78673e-08
9.51816e-09
-9.03111e-09
-2.34643e-08
-3.05591e-08
-2.90485e-08
-1.98896e-08
-5.89686e-09
9.116e-09
2.14014e-08
2.82337e-08
2.85009e-08
2.28085e-08
1.31246e-08
2.11864e-09
-7.58889e-09
-1.40563e-08
-1.63849e-08
-1.47658e-08
-1.02512e-08
-4.35584e-09
1.38019e-09
5.75134e-09
8.09608e-09
8.33528e-09
6.86623e-09
4.36924e-09
1.59231e-09
-8.30057e-10
-2.4894e-09
-3.23755e-09
-3.15408e-09
-2.4712e-09
-1.48439e-09
-4.72779e-10
3.5548e-10
8.87379e-10
1.10194e-09
1.04825e-09
8.14941e-10
5.00242e-10
1.89022e-10
-6.04268e-11
-2.19979e-10
-2.87883e-10
-2.80742e-10
-2.24299e-10
-1.45353e-10
-6.61351e-11
-1.46716e-12
4.1622e-11
6.25977e-11
6.52759e-11
5.55674e-11
3.96046e-11
2.2492e-11
7.70753e-12
-2.96405e-12
-9.14527e-12
-1.14156e-11
-1.08462e-11
-8.6156e-12
-5.75179e-12
-3.00075e-12
-7.99131e-13
6.84768e-13
1.47608e-12
1.71226e-12
1.57352e-12
1.23335e-12
8.3025e-13
4.57337e-13
1.64454e-13
-3.27804e-14
-1.41521e-13
-1.80943e-13
-1.73871e-13
-1.41287e-13
-9.95075e-14
-5.93847e-14
-2.68053e-14
-3.84189e-15
9.93648e-15
1.6294e-14
1.74438e-14
1.54774e-14
1.20694e-14
8.38448e-15
5.11312e-15
2.57102e-15
8.16599e-16
-2.41929e-16
-7.63375e-16
-9.17405e-16
-8.52445e-16
-6.81898e-16
-4.82458e-16
-2.99167e-16
-1.53196e-16
-4.98071e-17
1.4916e-17
4.90668e-17
6.16437e-17
6.0703e-17
5.25518e-17
4.16078e-17
3.06249e-17
2.10707e-17
1.35213e-17
8.00259e-18
4.25013e-18
1.8866e-18
5.30011e-19
-1.50144e-19
-4.11833e-19
-4.40258e-19
-3.58251e-19
-2.40463e-19
-1.2734e-19
-3.69507e-20
2.59891e-20
6.37967e-20
8.17456e-20
8.56796e-20
8.07932e-20
7.11519e-20
5.96377e-20
4.81036e-20
3.76048e-20
2.86314e-20
2.13065e-20
1.55385e-20
1.11284e-20
7.83969e-21
5.43984e-21
3.72202e-21
2.5135e-21
1.67661e-21
1.10544e-21
7.2085e-22
4.65146e-22
2.97145e-22
1.88001e-22
1.17849e-22
7.32166e-23
4.50963e-23
2.75449e-23
1.66885e-23
1.00317e-23
5.98408e-24
3.54306e-24
2.08254e-24
1.2154e-24
7.0441e-25
4.05484e-25
2.31861e-25
1.31717e-25
7.43489e-26
4.17036e-26
2.32481e-26
1.28814e-26
7.09486e-27
3.88482e-27
2.11487e-27
1.14477e-27
6.1619e-28
3.29841e-28
1.75599e-28
9.29814e-29
4.89734e-29
2.56592e-29
1.33743e-29
6.93544e-30
3.57829e-30
1.83697e-30
9.3838e-31
4.7701e-31
2.41308e-31
1.21488e-31
6.08742e-32
3.03594e-32
1.50707e-32
7.44681e-33
3.66291e-33