# vtk DataFile Version 2.0
FlowField
ASCII
DATASET STRUCTURED_GRID
DIMENSIONS 1602 1 52
POINTS 83304 float
0 0 0
0.1 0 0
0.2 0 0
0.3 0 0
0.4 0 0
0.5 0 0
0.6 0 0
0.7 0 0
0.8 0 0
0.9 0 0
1 0 0
1.1 0 0
1.2 0 0
1.3 0 0
1.4 0 0
1.5 0 0
1.6 0 0
1.7 0 0
1.8 0 0
1.9 0 0
2 0 0
2.1 0 0
2.2 0 0
2.3 0 0
2.4 0 0
2.5 0 0
2.6 0 0
2.7 0 0
2.8 0 0
2.9 0 0
3 0 0
3.1 0 0
3.2 0 0
3.3 0 0
3.4 0 0
3.5 0 0
3.6 0 0
3.7 0 0
3.8 0 0
3.9 0 0
4 0 0
4.1 0 0
4.2 0 0
4.3 0 0
4.4 0 0
4.5 0 0
4.6 0 0
4.7 0 0
4.8 0 0
4.9 0 0
5 0 0
5.1 0 0
5.2 0 0
5.3 0 0
5.4 0 0
5.5 0 0
5.6 0 0
5.7 0 0
5.8 0 0
5.9 0 0
6 0 0
6.1 0 0
6.2 0 0
6.3 0 0
6.4 0 0
6.5 0 0
6.6 0 0
6.7 0 0
6.8 0 0
6.9 0 0
7 0 0
7.1 0 0
7.2 0 0
7.3 0 0
7.4 0 0
7.5 0 0
7.6 0 0
7.7 0 0
7.8 0 0
7.9 0 0
8 0 0
8.1 0 0
8.2 0 0
8.3 0 0
8.4 0 0
8.5 0 0
8.6 0 0
8.7 0 0
8.8 0 0
8.9 0 0
9 0 0
9.1 0 0
9.2 0 0
9.3 0 0
9.4 0 0
9.5 0 0
9.6 0 0
9.7 0 0
9.8 0 0
9.9 0 0
10 0 0
10.1 0 0
10.2 0 0
10.3 0 0
10.4 0 0
10.5 0 0
10.6 0 0
10.7 0 0
10.8 0 0
10.9 0 0
11 0 0
11.1 0 0
11.2 0 0
11.3 0 0
11.4 0 0
11.5 0 0
11.6 0 0
11.7 0 0
11.8 0 0
11.9 0 0
12 0 0
12.1 0 0
12.2 0 0
12.3 0 0
12.4 0 0
12.5 0 0
12.6 0 0
12.7 0 0
12.8 0 0
12.9 0 0
13 0 0
13.1 0 0
13.2 0 0
13.3 0 0
13.4 0 0
13.5 0 0
13.6 0 0
13.7 0 0
13.8 0 0
13.9 0 0
14 0 0
14.1 0 0
14.2 0 0
14.3 0 0
14.4 0 0
14.5 0 0
14.6 0 0
14.7 0 0
14.8 0 0
14.9 0 0
15 0 0
15.1 0 0
15.2 0 0
15.3 0 0
15.4 0 0
15.5 0 0
15.6 0 0
15.7 0 0
15.8 0 0
15.9 0 0
16 0 0
16.1 0 0
16.2 0 0
16.3 0 0
16.4 0 0
16.5 0 0
16.6 0 0
16.7 0 0
16.8 0 0
16.9 0 0
17 0 0
17.1 0 0
17.2 0 0
17.3 0 0
17.4 0 0
17.5 0 0
17.6 0 0
17.7 0 0
17.8 0 0
17.9 0 0
18 0 0
18.1 0 0
18.2 0 0
18.3 0 0
18.4 0 0
18.5 0 0
18.6 0 0
18.7 0 0
18.8 0 0
18.9 0 0
19 0 0
19.1 0 0
19.2 0 0
19.3 0 0
19.4 0 0
19.5 0 0
19.6 0 0
19.7 0 0
19.8 0 0
19.9 0 0
20 0 0
20.1 0 0
20.2 0 0
20.3 0 0
20.4 0 0
20.5 0 0
20.6 0 0
20.7 0 0
20.8 0 0
20.9 0 0
21 0 0
21.1 0 0
21.2 0 0
21.3 0 0
21.4 0 0
21.5 0 0
21.6 0 0
21.7 0 0
21.8 0 0
21.9 0 0
22 0 0
22.1 0 0
22.2 0 0
22.3 0 0
22.4 0 0
22.5 0 0
22.6 0 0
22.7 0 0
22.8 0 0
22.9 0 0
23 0 0
23.1 0 0
23.2 0 0
23.3 0 0
23.4 0 0
23.5 0 0
23.6 0 0
23.7 0 0
23.8 0 0
23.9 0 0
24 0 0
24.1 0 0
24.2 0 0
24.3 0 0
24.4 0 0
24.5 0 0
24.6 0 0
24.7 0 0
24.8 0 0
24.9 0 0
25 0 0
25.1 0 0
25.2 0 0
25.3 0 0
25.4 0 0
25.5 0 0
25.6 0 0
25.7 0 0
25.8 0 0
25.9 0 0
26 0 0
26.1 0 0
26.2 0 0
26.3 0 0
26.4 0 0
26.5 0 0
26.6 0 0
26.7 0 0
26.8 0 0
26.9 0 0
27 0 0
27.1 0 0
27.2 0 0
27.3 0 0
27.4 0 0
27.5 0 0
27.6 0 0
27.7 0 0
27.8 0 0
27.9 0 0
28 0 0
28.1 0 0
28.2 0 0
28.3 0 0
28.4 0 0
28.5 0 0
28.6 0 0
28.7 0 0
28.8 0 0
28.9 0 0
29 0 0
29.1 0 0
29.2 0 0
29.3 0 0
29.4 0 0
29.5 0 0
29.6 0 0
29.7 0 0
29.8 0 0
29.9 0 0
30 0 0
30.1 0 0
30.2 0 0
30.3 0 0
30.4 0 0
30.5 0 0
30.6 0 0
30.7 0 0
30.8 0 0
30.9 0 0
31 0 0
31.1 0 0
31.2 0 0
31.3 0 0
31.4 0 0
31.5 0 0
31.6 0 0
31.7 0 0
31.8 0 0
31.9 0 0
32 0 0
32.1 0 0
32.2 0 0
32.3 0 0
32.4 0 0
32.5 0 0
32.6 0 0
32.7 0 0
32.8 0 0
32.9 0 0
33 0 0
33.1 0 0
33.2 0 0
33.3 0 0
33.4 0 0
33.5 0 0
33.6 0 0
33.7 0 0
33.8 0 0
33.9 0 0
34 0 0
34.1 0 0
34.2 0 0
34.3 0 0
34.4 0 0
34.5 0 0
34.6 0 0
34.7 0 0
34.8 0 0
34.9 0 0
35 0 0
35.1 0 0
35.2 0 0
35.3 0 0
35.4 0 0
35.5 0 0
35.6 0 0
35.7 0 0
35.8 0 0
35.9 0 0
36 0 0
36.1 0 0
36.2 0 0
36.3 0 0
36.4 0 0
36.5 0 0
36.6 0 0
36.7 0 0
36.8 0 0
36.9 0 0
37 0 0
37.1 0 0
37.2 0 0
37.3 0 0
37.4 0 0
37.5 0 0
37.6 0 0
37.7 0 0
37.8 0 0
37.9 0 0
38 0 0
38.1 0 0
38.2 0 0
38.3 0 0
38.4 0 0
38.5 0 0
38.6 0 0
38.7 0 0
38.8 0 0
38.9 0 0
39 0 0
39.1 0 0
39.2 0 0
39.3 0 0
39.4 0 0
39.5 0 0
39.6 0 0
39.7 0 0
39.8 0 0
39.9 0 0
40 0 0
40.1 0 0
40.2 0 0
40.3 0 0
40.4 0 0
40.5 0 0
40.6 0 0
40.7 0 0
40.8 0 0
40.9 0 0
41 0 0
41.1 0 0
41.2 0 0
41.3 0 0
41.4 0 0
41.5 0 0
41.6 0 0
41.7 0 0
41.8 0 0
41.9 0 0
42 0 0
42.1 0 0
42.2 0 0
42.3 0 0
42.4 0 0
42.5 0 0
42.6 0 0
42.7 0 0
42.8 0 0
42.9 0 0
43 0 0
43.1 0 0
43.2 0 0
43.3 0 0
43.4 0 0
43.5 0 0
43.6 0 0
43.7 0 0
43.8 0 0
43.9 0 0
44 0 0
44.1 0 0
44.2 0 0
44.3 0 0
44.4 0 0
44.5 0 0
44.6 0 0
44.7 0 0
44.8 0 0
44.9 0 0
45 0 0
45.1 0 0
45.2 0 0
45.3 0 0
45.4 0 0
45.5 0 0
45.6 0 0
45.7 0 0
45.8 0 0
45.9 0 0
46 0 0
46.1 0 0
46.2 0 0
46.3 0 0
46.4 0 0
46.5 0 0
46.6 0 0
46.7 0 0
46.8 0 0
46.9 0 0
47 0 0
47.1 0 0
47.2 0 0
47.3 0 0
47.4 0 0
47.5 0 0
47.6 0 0
47.7 0 0
47.8 0 0
47.9 0 0
48 0 0
48.1 0 0
48.2 0 0
48.3 0 0
48.4 0 0
48.5 0 0
48.6 0 0
48.7 0 0
48.8 0 0
48.9 0 0
49 0 0
49.1 0 0
49.2 0 0
49.3 0 0
49.4 0 0
49.5 0 0
49.6 0 0
49.7 0 0
49.8 0 0
49.9 0 0
50 0 0
50.1 0 0
50.2 0 0
50.3 0 0
50.4 0 0
50.5 0 0
50.6 0 0
50.7 0 0
50.8 0 0
50.9 0 0
51 0 0
51.1 0 0
51.2 0 0
51.3 0 0
51.4 0 0
51.5 0 0
51.6 0 0
51.7 0 0
51.8 0 0
51.9 0 0
52 0 0
52.1 0 0
52.2 0 0
52.3 0 0
52.4 0 0
52.5 0 0
52.6 0 0
52.7 0 0
52.8 0 0
52.9 0 0
53 0 0
53.1 0 0
53.2 0 0
53.3 0 0
53.4 0 0
53.5 0 0
53.6 0 0
53.7 0 0
53.8 0 0
53.9 0 0
54 0 0
54.1 0 0
54.2 0 0
54.3 0 0
54.4 0 0
54.5 0 0
54.6 0 0
54.7 0 0
54.8 0 0
54.9 0 0
55 0 0
55.1 0 0
55.2 0 0
55.3 0 0
55.4 0 0
55.5 0 0
55.6 0 0
55.7 0 0
55.8 0 0
55.9 0 0
56 0 0
56.1 0 0
56.2 0 0
56.3 0 0
56.4 0 0
56.5 0 0
56.6 0 0
56.7 0 0
56.8 0 0
56.9 0 0
57 0 0
57.1 0 0
57.2 0 0
57.3 0 0
57.4 0 0
57.5 0 0
57.6 0 0
57.7 0 0
57.8 0 0
57.9 0 0
58 0 0
58.1 0 0
58.2 0 0
58.3 0 0
58.4 0 0
58.5 0 0
58.6 0 0
58.7 0 0
58.8 0 0
58.9 0 0
59 0 0
59.1 0 0
59.2 0 0
59.3 0 0
59.4 0 0
59.5 0 0
59.6 0 0
59.7 0 0
59.8 0 0
59.9 0 0
60 0 0
60.1 0 0
60.2 0 0
60.3 0 0
60.4 0 0
60.5 0 0
60.6 0 0
60.7 0 0
60.8 0 0
60.9 0 0
61 0 0
61.1 0 0
61.2 0 0
61.3 0 0
61.4 0 0
61.5 0 0
61.6 0 0
61.7 0 0
61.8 0 0
61.9 0 0
62 0 0
62.1 0 0
62.2 0 0
62.3 0 0
62.4 0 0
62.5 0 0
62.6 0 0
62.7 0 0
62.8 0 0
62.9 0 0
63 0 0
63.1 0 0
63.2 0 0
63.3 0 0
63.4 0 0
63.5 0 0
63.6 0 0
63.7 0 0
63.8 0 0
63.9 0 0
64 0 0
64.1 0 0
64.2 0 0
64.3 0 0
64.4 0 0
64.5 0 0
64.6 0 0
64.7 0 0
64.8 0 0
64.9 0 0
65 0 0
65.1 0 0
65.2 0 0
65.3 0 0
65.4 0 0
65.5 0 0
65.6 0 0
65.7 0 0
65.8 0 0
65.9 0 0
66 0 0
66.1 0 0
66.2 0 0
66.3 0 0
66.4 0 0
66.5 0 0
66.6 0 0
66.7 0 0
66.8 0 0
66.9 0 0
67 0 0
67.1 0 0
67.2 0 0
67.3 0 0
67.4 0 0
67.5 0 0
67.6 0 0
67.7 0 0
67.8 0 0
67.9 0 0
68 0 0
68.1 0 0
68.2 0 0
68.3 0 0
68.4 0 0
68.5 0 0
68.6 0 0
68.7 0 0
68.8 0 0
68.9 0 0
69 0 0
69.1 0 0
69.2 0 0
69.3 0 0
69.4 0 0
69.5 0 0
69.6 0 0
69.7 0 0
69.8 0 0
69.9 0 0
70 0 0
70.1 0 0
70.2 0 0
70.3 0 0
70.4 0 0
70.5 0 0
70.6 0 0
70.7 0 0
70.8 0 0
70.9 0 0
71 0 0
71.1 0 0
71.2 0 0
71.3 0 0
71.4 0 0
71.5 0 0
71.6 0 0
71.7 0 0
71.8 0 0
71.9 0 0
72 0 0
72.1 0 0
72.2 0 0
72.3 0 0
72.4 0 0
72.5 0 0
72.6 0 0
72.7 0 0
72.8 0 0
72.9 0 0
73 0 0
73.1 0 0
73.2 0 0
73.3 0 0
73.4 0 0
73.5 0 0
73.6 0 0
73.7 0 0
73.8 0 0
73.9 0 0
74 0 0
74.1 0 0
74.2 0 0
74.3 0 0
74.4 0 0
74.5 0 0
74.6 0 0
74.7 0 0
74.8 0 0
74.9 0 0
75 0 0
75.1 0 0
75.2 0 0
75.3 0 0
75.4 0 0
75.5 0 0
75.6 0 0
75.7 0 0
75.8 0 0
75.9 0 0
76 0 0
76.1 0 0
76.2 0 0
76.3 0 0
76.4 0 0
76.5 0 0
76.6 0 0
76.7 0 0
76.8 0 0
76.9 0 0
77 0 0
77.1 0 0
77.2 0 0
77.3 0 0
77.4 0 0
77.5 0 0
77.6 0 0
77.7 0 0
77.8 0 0
77.9 0 0
78 0 0
78.1 0 0
78.2 0 0
78.3 0 0
78.4 0 0
78.5 0 0
78.6 0 0
78.7 0 0
78.8 0 0
78.9 0 0
79 0 0
79.1 0 0
79.2 0 0
79.3 0 0
79.4 0 0
79.5 0 0
79.6 0 0
79.7 0 0
79.8 0 0
79.9 0 0
80 0 0
80.1 0 0
80.2 0 0
80.3 0 0
80.4 0 0
80.5 0 0
80.6 0 0
80.7 0 0
80.8 0 0
80.9 0 0
81 0 0
81.1 0 0
81.2 0 0
81.3 0 0
81.4 0 0
81.5 0 0
81.6 0 0
81.7 0 0
81.8 0 0
81.9 0 0
82 0 0
82.1 0 0
82.2 0 0
82.3 0 0
82.4 0 0
82.5 0 0
82.6 0 0
82.7 0 0
82.8 0 0
82.9 0 0
83 0 0
83.1 0 0
83.2 0 0
83.3 0 0
83.4 0 0
83.5 0 0
83.6 0 0
83.7 0 0
83.8 0 0
83.9 0 0
84 0 0
84.1 0 0
84.2 0 0
84.3 0 0
84.4 0 0
84.5 0 0
84.6 0 0
84.7 0 0
84.8 0 0
84.9 0 0
85 0 0
85.1 0 0
85.2 0 0
85.3 0 0
85.4 0 0
85.5 0 0
85.6 0 0
85.7 0 0
85.8 0 0
85.9 0 0
86 0 0
86.1 0 0
86.2 0 0
86.3 0 0
86.4 0 0
86.5 0 0
86.6 0 0
86.7 0 0
86.8 0 0
86.9 0 0
87 0 0
87.1 0 0
87.2 0 0
87.3 0 0
87.4 0 0
87.5 0 0
87.6 0 0
87.7 0 0
87.8 0 0
87.9 0 0
88 0 0
88.1 0 0
88.2 0 0
88.3 0 0
88.4 0 0
88.5 0 0
88.6 0 0
88.7 0 0
88.8 0 0
88.9 0 0
89 0 0
89.1 0 0
89.2 0 0
89.3 0 0
89.4 0 0
89.5 0 0
89.6 0 0
89.7 0 0
89.8 0 0
89.9 0 0
90 0 0
90.1 0 0
90.2 0 0
90.3 0 0
90.4 0 0
90.5 0 0
90.6 0 0
90.7 0 0
90.8 0 0
90.9 0 0
91 0 0
91.1 0 0
91.2 0 0
91.3 0 0
91.4 0 0
91.5 0 0
91.6 0 0
91.7 0 0
91.8 0 0
91.9 0 0
92 0 0
92.1 0 0
92.2 0 0
92.3 0 0
92.4 0 0
92.5 0 0
92.6 0 0
92.7 0 0
92.8 0 0
92.9 0 0
93 0 0
93.1 0 0
93.2 0 0
93.3 0 0
93.4 0 0
93.5 0 0
93.6 0 0
93.7 0 0
93.8 0 0
93.9 0 0
94 0 0
94.1 0 0
94.2 0 0
94.3 0 0
94.4 0 0
94.5 0 0
94.6 0 0
94.7 0 0
94.8 0 0
94.9 0 0
95 0 0
95.1 0 0
95.2 0 0
95.3 0 0
95.4 0 0
95.5 0 0
95.6 0 0
95.7 0 0
95.8 0 0
95.9 0 0
96 0 0
96.1 0 0
96.2 0 0
96.3 0 0
96.4 0 0
96.5 0 0
96.6 0 0
96.7 0 0
96.8 0 0
96.9 0 0
97 0 0
97.1 0 0
97.2 0 0
97.3 0 0
97.4 0 0
97.5 0 0
97.6 0 0
97.7 0 0
97.8 0 0
97.9 0 0
98 0 0
98.1 0 0
98.2 0 0
98.3 0 0
98.4 0 0
98.5 0 0
98.6 0 0
98.7 0 0
98.8 0 0
98.9 0 0
99 0 0
99.1 0 0
99.2 0 0
99.3 0 0
99.4 0 0
99.5 0 0
99.6 0 0
99.7 0 0
99.8 0 0
99.9 0 0
100 0 0
100.1 0 0
100.2 0 0
100.3 0 0
100.4 0 0
100.5 0 0
100.6 0 0
100.7 0 0
100.8 0 0
100.9 0 0
101 0 0
101.1 0 0
101.2 0 0
101.3 0 0
101.4 0 0
101.5 0 0
101.6 0 0
101.7 0 0
101.8 0 0
101.9 0 0
102 0 0
102.1 0 0
102.2 0 0
102.3 0 0
102.4 0 0
102.5 0 0
102.6 0 0
102.7 0 0
102.8 0 0
102.9 0 0
103 0 0
103.1 0 0
103.2 0 0
103.3 0 0
103.4 0 0
103.5 0 0
103.6 0 0
103.7 0 0
103.8 0 0
103.9 0 0
104 0 0
104.1 0 0
104.2 0 0
104.3 0 0
104.4 0 0
104.5 0 0
104.6 0 0
104.7 0 0
104.8 0 0
104.9 0 0
105 0 0
105.1 0 0
105.2 0 0
105.3 0 0
105.4 0 0
105.5 0 0
105.6 0 0
105.7 0 0
105.8 0 0
105.9 0 0
106 0 0
106.1 0 0
106.2 0 0
106.3 0 0
106.4 0 0
106.5 0 0
106.6 0 0
106.7 0 0
106.8 0 0
106.9 0 0
107 0 0
107.1 0 0
107.2 0 0
107.3 0 0
107.4 0 0
107.5 0 0
107.6 0 0
107.7 0 0
107.8 0 0
107.9 0 0
108 0 0
108.1 0 0
108.2 0 0
108.3 0 0
108.4 0 0
108.5 0 0
108.6 0 0
108.7 0 0
108.8 0 0
108.9 0 0
109 0 0
109.1 0 0
109.2 0 0
109.3 0 0
109.4 0 0
109.5 0 0
109.6 0 0
109.7 0 0
109.8 0 0
109.9 0 0
110 0 0
110.1 0 0
110.2 0 0
110.3 0 0
110.4 0 0
110.5 0 0
110.6 0 0
110.7 0 0
110.8 0 0
110.9 0 0
111 0 0
111.1 0 0
111.2 0 0
111.3 0 0
111.4 0 0
111.5 0 0
111.6 0 0
111.7 0 0
111.8 0 0
111.9 0 0
112 0 0
[...]
POINT_DATA 83304

SCALARS pressure float 1
LOOKUP_TABLE default
0
0
0
0
0
0
0
0
0
0
0
0
0
0
0
0
0
0
0
0
0
0
0
0
0
0
0
0
0
0
0
0
0
0
0
0
0
0
0
0
0
0
0
0
0
0
0
0
0
0
0
0
0
0
0
0
0
0
0
0
0
0
0
0
0
0
0
0
0
0
0
0
0
0
0
0
0
0
0
0
0
0
0
0
0
0
0
0
0
0
0
0
0
0
0
0
0
0
0
0
0
0
0
0
0
0
0
0
0
0
0
0
0
0
0
0
0
0
0
0
0
0
0
0
0
0
0
0
0
0
0
0
0
0
0
0
0
0
0
0
0
0
0
0
0
0
0
0
0
0
0
0
0
0
0
0
0
0
0
0
0
0
0
0
0
0
0
0
0
0
0
0
0
0
0
0
0
0
0
0
0
0
0
0
0
0
0
0
0
0
0
0
0
0
0
0
0
0
0
0
0
0
0
0
0
0
0
0
0
0
0
0
0
0
0
0
0
0
0
0
0
0
0
0
0
0
0
0
0
0
0
0
0
0
0
0
0
0
0
0
0
0
0
0
0
0
0
0
0
0
0
0
0
0
0
0
0
0
0
0
0
0
0
0
0
0
0
0
0
0
0
0
0
0
0
0
0
0
0
0
0
0
0
0
0
0
0
0
0
0
0
0
0
0
0
0
0
0
0
0
0
0
0
0
0
0
0
0
0
0
0
0
0
0
0
0
0
0
0
0
0
0
0
0
0
0
0
0
0
0
0
0
0
0
0
0
0
0
0
0
0
0
0
0
0
0
0
0
0
0
0
0
0
0
0
0
0
0
0
0
0
0
0
0
0
0
0
0
0
0
0
0
0
0
0
0
0
0
0
0
0
0
0
0
0
0
0
0
0
0
0
0
0
0
0
0
0
0
0
0
0
0
0
0
0
0
0
0
0
0
0
0
0
0
0
0
0
0
0
0
0
0
0
0
0
0
0
0
0
0
0
0
0
0
0
0
0
0
0
0
0
0
0
0
0
0
0
0
0
0
0
0
0
0
0
0
0
0
0
0
0
0
0
0
0
0
0
0
0
0
0
0
0
0
0
0
0
0
0
0
0
0
0
0
0
0
0
0
0
0
0
0
0
0
0
0
0
0
0
0
0
0
0
0
0
0
0
0
0
0
0
0
0
0
0
0
0
0
0
0
0
0
0
0
0
0
0
0
0
0
0
0
0
0
0
0
0
0
0
0
0
0
0
0
0
0
0
0
0
0
0
0
0
0
0
0
0
0
0
0
0
0
0
0
0
0
0
0
0
0
0
0
0
0
0
0
0
0
0
0
0
0
0
0
0
0
0
0
0
0
0
0
0
0
0
0
0
0
0
0
0
0
0
0
0
0
0
0
0
0
0
0
0
0
0
0
0
0
0
0
0
0
0
0
0
0
0
0
0
0
0
0
0
0
0
0
0
0
0
0
0
0
0
0
0
0
0
0
0
0
0
0
0
0
0
0
0
0
0
0
0
0
0
0
0
0
0
0
0
0
0
0
0
0
0
0
0
0
0
0
0
0
0
0
0
0
0
0
0
0
0
0
0
0
0
0
0
0
0
0
0
0
0
0
0
0
0
0
0
0
0
0
0
0
0
0
0
0
0
0
0
0
0
0
0
0
0
0
0
0
0
0
0
0
0
0
0
0
0
0
0
0
0
0
0
0
0
0
0
0
0
0
0
0
0
0
0
0
0
0
0
0
0
0
0
0
0
0
0
0
0
0
0
0
0
0
0
0
0
0
0
0
0
0
0
0
0
0
0
0
0
0
0
0
0
0
0
0
0
0
0
0
0
0
0
0
0
0
0
0
0
0
0
0
0
0
0
0
0
0
0
0
0
0
0
0
0
0
0
0
0
0
0
0
0
0
0
0
0
0
0
0
0
0
0
0
0
0
0
0
0
0
0
0
0
0
0
0
0
0
0
0
0
0
0
0
0
0
0
0
0
0
0
0
0
0
0
0
0
0
0
0
0
0
0
0
0
0
0
0
0
0
0
0
0
0
0
0
0
0
0
0
0
0
0
0
0
0
0
0
0
0
0
0
0
0
0
0
0
0
0
0
0
0
0
0
0
0
0
0
0
0
0
0
0
0
0
0
0
0
0
0
0
0
0
0
0
0
0
0
0
0
0
0
0
0
0
0
0
0
0
0
0
0
0
0
0
0
0
0
0
0
0
0
0
0
0
0
0
0
0
0
0
0
0
0
0
0
0
0
0
0
0
0
0
0
0
0
0
0
0
0
0
0
0
0
0
0
0
0
0
0
0
0
0
0
0
0
0
0
0
0
0
0
0
0
0
0
0
0
0
0
0
0
0
0
0
0
0
0
0
0
0
0
0
0
0
0
0
0
0
0
0
0
0
0
0
0
0
0
0
0
0
0
0
0
0
0
0
0
0
0
0
0
0
0
0
0
0
0
0
0
0
0
0
0
0
0
0
0
0
0
0
0
0
0
0
0
0
0
0
0
0
0
0
0
0
0
0
0
0
0
0
0
0
0
0
0
0
0
0
0
0
0
0
0
0
0
0
0
0
0
0
0
0
0
0
0
0
0
0
0
0
0
0
0
0
0
0
0
0
0
0
0
0
0
0
0
0
0
0
0
0
0
0
0
0
0
0
0
0
0
0
0
0
0
0
0
0
0
0
0
0
0
0
0
0
0
0
0
0
0
0
0
0
0
0
0
0
0
0
0
0
0
0
0
0
0
0
0
0
0
0
0
0
0
0
0
0
0
0
0
0
0
0
0
0
0
0
0
0
0
0
0
0
0
0
0
0
0
0
0
0
0
0
0
0
0
0
0
0
0
0
0
0
0
0
0
0
0
0
0
0
0
0
0
0
0
0
0
0
0
0
0
0
0
0
0
0
0
0
0
0
0
0
0
0
0
0
0
0
0
0
0
0
0
0
0
0
0
0
0
0
0
0
0
0
0
0
0
0
0
0
0
0
0
0
0
0
0
0
0
0
0
0
0
0
0
0
0
0
0
0
0
0
0
0
0
0
0
0
0
0
0
0
0
0
0
0
0
0
0
0
0
0
0
0
0
0
0
0
0
0
0
0
0
0
0
0
0
0
0
0
0
0
0
0
0
0
0
0
0
0
0
0
0
0
0
0
0
0
0
0
0
0
0
0
0
0
0
0
0
0
0
0
0
0
0
0
0
0
0
0
0
0
0
0
0
0
0
0
0
0
0
0
0
0
0
0
0
0
0
0
0
0
0
0
0
0
0
0
0
0
0
0
0
0
0
0
0
0
0
0
0
0
0
0
0
0
0
0
0
0
0
0
0
0
0
0
0
0
0
0
0
0
0
0
0
0
0
0
0
0
0
0
0
0
0
0
0
0
0
0
0
0
0
0
0
0
0
0
0
0
0
0
0
0
0
0
0
0
0
0
0
0
0
0
0
0
0
0
0
0
0
0
0
0
0
0
0
0
0
0
0
0
0
0
0
0
0
0
0
0
0
0
0
0
0
0
0
0
0
0
0
0
0
0
0
0
0
0
0
0
0
0
0
0
0
0
0
0
0
0
0
0
0
0
0
0
0
0
0
0
0
0
0
0
0
0
0
0
0
0
0
0
0
0
0
0
0
0
0
0
0.0776415
0.052903
0.0436505
0.0357426
0.03048
0.0271088
0.0248019
0.023116
0.0218008
0.0207277
0.0198235
0.0190436
0.0183596
0.0177519
0.0172066
0.0167134
0.0162644
0.0158532
0.0154749
0.0151254
0.0148012
0.0144994
0.0142175
0.0139534
0.0137053
0.0134716
0.0132509
0.013042
0.0128438
0.0126555
0.0124761
0.012305
0.0121415
0.011985
0.0118349
0.0116907
0.0115519
0.011418
0.0112883
0.0111623
0.0110393
0.0109184
0.0107988
0.0106797
0.0105602
0.0104398
0.0103183
0.0101961
0.0100745
0.00995592
0.0098444
0.00974549
0.00966643
0.00961586
0.00960336
0.00963846
0.00972933
0.00988105
0.0100936
0.0103595
0.0106618
0.0109722
0.0112495
0.0114397
0.0114772
0.0112884
0.0107972
0.00993539
0.00865439
0.00693683
0.00481355
0.00238004
-0.000191128
-0.00265011
-0.00469482
-0.00601267
-0.00632432
-0.00541745
-0.00317108
0.000438879
0.00535433
0.011446
0.0185383
0.0264303
0.0349103
0.0437675
0.0527962
0.0617959
0.0705732
0.0789479
0.0867256
0.0936989
0.0996825
0.104537
0.108157
0.110458
0.11138
0.110911
0.10909
0.106015
0.101828
0.0967067
0.0908573
0.0844988
0.0778504
0.0711151
0.0644673
0.0580459
0.0519533
0.0462579
0.0409992
0.0361939
0.031841
0.0279268
0.0244292
0.0213204
0.0185698
0.0161457
0.0140164
0.0121516
0.0105224
0.00910221
0.00786652
0.00679311
0.00586199
0.00505529
0.00435715
0.00375353
0.00323206
0.00278189
0.00239353
0.00205869
0.00177013
0.00152157
0.00130756
0.00112336
0.000964882
0.000828569
0.000711357
0.000610596
0.000524
0.000449596
0.00038568
0.000330788
0.000283653
0.00024319
0.000208459
0.000178654
0.000153083
0.000131146
0.000112332
9.61988e-05
8.23667e-05
7.05099e-05
6.0348e-05
5.16405e-05
4.41806e-05
3.77906e-05
3.23183e-05
2.76327e-05
2.36214e-05
2.01881e-05
1.72502e-05
1.47365e-05
1.25864e-05
1.07476e-05
9.17528e-06
7.83112e-06
6.68224e-06
5.70045e-06
4.86165e-06
4.14517e-06
3.53328e-06
3.01079e-06
2.56471e-06
2.18396e-06
1.85914e-06
1.58227e-06
1.34653e-06
1.14601e-06
9.75522e-07
8.3057e-07
7.07286e-07
6.02461e-07
5.13481e-07
4.38156e-07
3.7446e-07
3.20288e-07
2.73366e-07
2.31426e-07
1.92627e-07
1.5607e-07
1.22165e-07
9.26049e-08
6.98215e-08
5.60221e-08
5.21056e-08
5.68636e-08
6.6829e-08
7.69259e-08
8.17883e-08
7.73484e-08
6.21637e-08
3.80127e-08
9.51647e-09
-1.71265e-08
-3.59115e-08
-4.27525e-08
-3.66311e-08
-1.98328e-08
2.76642e-09
2.51118e-08
4.16266e-08
4.86257e-08
4.5105e-08
3.27447e-08
1.5205e-08
-3.01487e-09
-1.77955e-08
-2.63587e-08
-2.77557e-08
-2.28238e-08
-1.37067e-08
-3.13266e-09
6.3258e-09
1.28207e-08
1.55174e-08
1.45862e-08
1.09591e-08
5.95913e-09
9.19026e-10
-3.11761e-09
-5.56068e-09
-6.29634e-09
-5.59692e-09
-3.96646e-09
-1.9737e-09
-1.13865e-10
1.27708e-09
2.05035e-09
2.22403e-09
1.93254e-09
1.36549e-09
7.12541e-10
1.24419e-10
-3.06184e-10
-5.45787e-10
-6.08616e-10
-5.38808e-10
-3.92107e-10
-2.21059e-10
-6.56678e-11
5.03228e-11
1.18639e-10
1.42853e-10
1.3363e-10
1.04221e-10
6.70052e-11
3.14379e-11
3.29204e-12
-1.51061e-11
-2.40607e-11
-2.54832e-11
-2.19396e-11
-1.59291e-11
-9.44781e-12
-3.81313e-12
3.1667e-13
2.80697e-12
3.86666e-12
3.87504e-12
3.24588e-12
2.33931e-12
1.4191e-12
6.44728e-13
8.56712e-14
-2.53921e-13
-4.08974e-13
-4.31161e-13
-3.72926e-13
-2.78099e-13
-1.78005e-13
-9.14368e-14
-2.68285e-14
1.47035e-14
3.63674e-14
4.32625e-14
4.06895e-14
3.31711e-14
2.40412e-14
1.54192e-14
8.40209e-15
3.34225e-15
1.25373e-16
-1.60005e-15
-2.25828e-15
-2.24511e-15
-1.87779e-15
-1.38093e-15
-8.94022e-16
-4.89195e-16
-1.91544e-16
2.58124e-18
1.11339e-16
1.57608e-16
1.6313e-16
1.45641e-16
1.18023e-16
8.86266e-17
6.21607e-17
4.07148e-17
2.4698e-17
1.35804e-17
6.41905e-18
2.19123e-18
-2.26781e-20
-9.60283e-19
-1.16357e-18
-1.00023e-18
-6.99538e-19
-3.90131e-19
-1.33284e-19
5.10502e-20
1.65525e-19
2.23054e-19
2.3937e-19
2.29058e-19
2.03851e-19
1.72252e-19
1.39853e-19
1.09932e-19
8.40946e-20
6.28373e-20
4.5992e-20
3.30444e-20
2.33456e-20
1.62408e-20
1.11379e-20
7.53717e-21
5.03705e-21
3.3267e-21
2.17262e-21
1.40385e-21
8.97901e-22
5.68708e-22
3.56836e-22
2.21877e-22
1.36759e-22
8.35829e-23
5.06655e-23
3.04678e-23
1.81802e-23
1.07665e-23
6.32912e-24
3.69391e-24
2.14078e-24
1.23216e-24
7.04421e-25
4.00061e-25
2.25738e-25
1.26567e-25
7.05209e-26
3.90524e-26
2.14958e-26
1.17619e-26
6.39822e-27
3.46048e-27
1.861e-27
9.95233e-28
5.29302e-28
2.79972e-28
1.47296e-28
7.70834e-29
4.01284e-29
2.07823e-29
1.07081e-29
5.48947e-30
2.80012e-30
1.42125e-30
7.17862e-31
3.60832e-31
1.80504e-31
8.98685e-32
4.45334e-32
2.19656e-32
1.07844e-32
5.27069e-33
2.56432e-33
1.24202e-33
5.98899e-34
2.87518e-34
1.37429e-34
6.54045e-35
3.09936e-35
1.46246e-35
6.87162e-36
3.21523e-36
1.49815e-36
6.95194e-37
3.21273e-37
1.47868e-37
6.77827e-38
3.09472e-38
1.40732e-38
6.37451e-39
2.87603e-39
1.29254e-39
5.78647e-40
2.58054e-40
1.14642e-40
5.07374e-41
2.23703e-41
9.82619e-42
4.3001e-42
1.87483e-42
8.14417e-43
3.52484e-43
1.52003e-43
6.5312e-44
2.79622e-44
1.19288e-44
5.07078e-45
2.14792e-45
9.06637e-46
3.81356e-46
1.59851e-46
6.67727e-47
2.77963e-47
1.15316e-47
4.76772e-48
1.96455e-48
8.0677e-49
3.30203e-49
1.34698e-49
5.4765e-50
2.21926e-50
8.9637e-51
3.60865e-51
1.44807e-51
5.79197e-52
2.30921e-52
9.17711e-53
3.63548e-53
1.43561e-53
5.65115e-54
2.21753e-54
8.6744e-55
3.38263e-55
1.31498e-55
5.09611e-56
1.96889e-56
7.58352e-57
2.91202e-57
1.1148e-57
4.25485e-58
1.61906e-58
6.14235e-59
2.32332e-59
8.76173e-60
3.29444e-60
1.23507e-60
4.61661e-61
1.72061e-61
6.39401e-62
2.3692e-62
8.75332e-63
3.22471e-63
1.18457e-63
4.33898e-64
1.5848e-64
5.77205e-65
2.09631e-65
7.59201e-66
2.74181e-66
9.87423e-67
3.54616e-67
1.27001e-67
4.53578e-68
1.61547e-68
5.73792e-69
2.03245e-69
7.17959e-70
2.52929e-70
8.88631e-71
3.11366e-71
1.08806e-71
3.792e-72
1.31803e-72
4.56902e-73
1.57968e-73
5.44712e-74
1.87335e-74
6.42584e-75
2.19838e-75
7.5014e-76
2.55301e-76
8.66632e-77
2.93424e-77
9.90914e-78
3.33781e-78
1.12144e-78
3.7582e-79
1.25626e-79
4.18868e-80
1.39308e-80
4.62149e-81
1.52931e-81
5.04802e-82
1.66212e-82
5.45911e-83
1.78856e-83
5.84533e-84
1.90565e-84
6.1974e-85
2.01053e-85
6.50651e-86
2.10052e-86
6.76473e-87
2.1733e-87
6.96531e-88
2.22697e-88
7.10302e-89
2.26012e-89
7.17433e-90
2.27194e-90
7.17761e-91
2.26221e-91
7.11312e-92
2.23133e-92
6.98308e-93
2.18028e-93
6.79143e-94
2.11056e-94
6.54374e-95
2.02417e-95
6.24687e-96
1.92343e-96
5.90871e-97
1.81097e-97
5.53781e-98
1.68956e-98
5.14303e-99
1.56199e-99
4.73322e-100
1.43104e-100
4.31689e-101
1.29931e-101
3.90195e-102
1.16918e-102
3.4955e-103
1.04273e-103
3.10366e-104
9.21751e-105
2.73146e-105
8.07641e-106
2.38281e-106
7.01467e-107
2.06052e-107
6.03948e-108
1.76635e-108
5.15481e-109
1.50109e-109
4.3618e-110
1.2647e-110
3.65911e-111
1.05641e-111
3.04342e-112
8.74909e-113
2.5098e-113
7.18446e-114
2.05224e-114
5.84985e-115
1.66397e-115
4.72314e-116
1.33784e-116
3.78155e-117
1.06666e-117
3.00246e-118
8.43383e-119
2.36413e-119
6.61329e-120
1.84615e-120
5.14304e-121
1.42982e-121
3.96688e-122
1.09832e-122
3.03472e-123
8.36806e-124
2.30275e-124
6.32392e-125
1.73319e-125
4.74055e-126
1.294e-126
3.52506e-127
9.58355e-128
2.60025e-128
7.04102e-129
1.90278e-129
5.1319e-130
1.38135e-130
3.7108e-131
9.94882e-132
2.66206e-132
7.10901e-133
1.89472e-133
5.03999e-134
1.33802e-134
3.54525e-135
9.37528e-136
2.47443e-136
6.51814e-137
1.71368e-137
4.49671e-138
1.17766e-138
3.0783e-139
8.03091e-140
2.09115e-140
5.43468e-141
1.40972e-141
3.64974e-142
9.43113e-143
2.43243e-143
6.26172e-144
1.60888e-144
4.12605e-145
1.05615e-145
2.69835e-146
6.88107e-147
1.75146e-147
4.44969e-148
1.12836e-148
2.856e-149
7.21538e-150
1.81951e-150
4.57976e-151
1.15061e-151
2.88544e-152
7.22263e-153
1.80459e-153
4.50055e-154
1.12036e-154
2.78389e-155
6.90485e-156
1.70948e-156
4.22459e-157
1.04212e-157
2.56602e-158
6.30694e-159
1.54736e-159
3.78951e-160
9.26384e-161
2.26058e-161
5.50642e-162
1.33888e-162
3.24965e-163
7.87332e-164
1.90417e-164
4.59707e-165
1.10786e-165
2.66515e-166
6.40014e-167
1.53423e-167
3.67136e-168
8.76999e-169
2.09126e-169
4.97802e-170
1.18289e-170
2.80591e-171
6.64426e-172
1.57059e-172
3.70616e-173
8.73035e-174
2.05299e-174
4.81939e-175
1.1294e-175
2.64213e-176
6.17041e-177
1.43856e-177
3.34809e-178
7.77898e-179
1.80429e-179
4.17782e-180
9.65723e-181
2.22852e-181
5.13387e-182
1.18069e-182
2.71077e-183
6.21322e-184
1.4217e-184
3.24763e-185
7.40622e-186
1.68615e-186
3.8324e-187
8.69596e-188
1.96988e-188
4.45488e-189
1.0058e-189
2.26706e-190
5.10146e-191
1.14606e-191
2.5704e-192
5.75543e-193
1.28659e-193
2.87134e-194
6.39759e-195
1.4231e-195
3.16041e-196
7.00713e-197
1.55106e-197
3.42774e-198
7.56275e-199
1.66589e-199
3.6636e-200
8.04387e-201
1.76327e-201
3.85898e-202
8.43188e-203
1.8394e-203
4.00619e-204
8.7114e-205
1.89125e-205
4.09933e-206
8.87123e-207
1.91673e-207
4.13472e-208
8.90513e-209
1.91489e-209
4.11111e-210
8.81223e-211
1.88593e-211
4.02976e-212
8.59701e-213
1.83119e-213
3.89434e-214
8.26901e-215
1.75304e-215
3.71066e-216
7.84207e-217
1.65475e-217
3.48624e-218
7.33342e-219
1.54021e-219
3.22983e-220
6.76248e-221
1.41371e-221
2.95083e-222
6.14975e-223
1.27968e-223
2.65875e-224
5.5155e-225
1.14242e-225
2.36267e-226
4.87883e-227
1.00592e-227
2.07086e-228
4.25671e-229
8.73651e-230
1.79037e-230
3.66342e-231
7.48469e-232
1.52687e-232
3.11012e-233
6.32551e-234
1.28458e-234
2.60478e-235
5.27387e-236
1.06619e-236
2.15225e-237
4.33808e-238
8.73082e-239
1.75454e-239
3.52068e-240
7.05411e-241
1.41128e-241
2.81928e-242
5.62369e-243
1.12011e-243
2.22771e-244
4.424e-245
8.77265e-246
1.73703e-246
3.43437e-247
6.78028e-248
1.33663e-248
2.63112e-249
5.1717e-250
1.01506e-250
1.98938e-251
3.89324e-252
7.60803e-253
1.48458e-253
2.8927e-254
5.62826e-255
1.0935e-255
2.12145e-256
4.1098e-257
7.95029e-258
1.53575e-258
2.96233e-259
5.70587e-260
1.09746e-260
2.10782e-261
4.04257e-262
7.74213e-263
1.48062e-263
2.82754e-264
5.39208e-265
1.0268e-265
1.95254e-266
3.70764e-267
7.0304e-268
1.33122e-268
2.51713e-269
4.75279e-270
8.96148e-271
1.68733e-271
3.17257e-272
5.95678e-273
1.11687e-273
2.09116e-274
3.9099e-275
7.30022e-276
1.36114e-276
2.53432e-277
4.71213e-278
8.74924e-279
1.62226e-279
3.00378e-280
5.55412e-281
1.02556e-281
1.89107e-282
3.48222e-283
6.40333e-284
1.17587e-284
2.15632e-285
3.94886e-286
7.22164e-287
1.31888e-287
2.40536e-288
4.38089e-289
7.96804e-290
1.44727e-290
2.62516e-291
4.75524e-292
8.60198e-293
1.55395e-293
2.8034e-294
5.05065e-295
9.08703e-296
1.63272e-296
2.92964e-297
5.24967e-298
9.39434e-299
1.67887e-299
2.9963e-300
5.34037e-301
9.50552e-302
1.68966e-302
2.99946e-303
5.3175e-304
9.41442e-305
1.66457e-305
2.93922e-306
5.18305e-307
9.12774e-308
1.60533e-308
2.81964e-309
4.94592e-310
8.66417e-311
1.51577e-311
2.64832e-312
4.62098e-313
8.05243e-314
1.40136e-314
2.43559e-315
4.22754e-316
7.32833e-317
1.26868e-317
2.19349e-318
3.78746e-319
6.53105e-320
1.12449e-320
1.93674e-321
3.31024e-322
5.43472e-323
4.94066e-324
0
0
0
0
0
0
0
0
0
0
0
0
0
0
0
0
0
0
0
0
0
0
0
0
0
0
0
0
0
0
0
0
0
0
0
0
0
0
0
0
0
0
0
0
0
0
0
0
0
0
0
0
0
0
0
0
0
0
0
0
0
0
0
0
0
0
0
0
0
0
0
0
0
0
0
0
0
0
0
0
0
0
0
0
0
0
0
0
0
0
0
0
0
0
0
0
0
0
0
0
0
0
0
0
0
0
0
0
0
0
0
0
0
0
0
0
0
0
0
0
0
0
0
0
0
0
0
0
0
0
0
0
0
0
0
0
0
0
0
0
0
0
0
0
0
0
0
0
0
0
0
0
0
0
0
0
0
0
0
0
0
0
0
0
0
0
0
0
0
0
0
0
0
0
0
0
0
0
0
0
0
0
0
0
0
0
0
0
0
0
0
0
0
0
0
0
0
0
0
0
0
0
0
0
0
0
0
0
0
0
0
0
0
0
0
0
0
0
0
0
0
0
0
0
0
0
0
0
0
0
0
0
0
0
0
0
0
0
0
0
0
0
0
0
0
0
0
0
0
0
0
0
0
0
0
0
0
0
0
0
0
0
0
0
0
0
0
0
0
0
0
0
0
0
0
0
0
0
0
0
0
0
0
0
0
0
0
0
0
0
0
0
0
0
0
0
0
0
0
0
0
0
0
0
0
0
0
0
0
0
0
0
0
0
0
0
0
0
0
0
0
0
0
0
0
0
0
0
0
0
0
0
0
0
0
0
0
0
0
0
0
0
0
0
0
0
0
0
0
0
0
0
0
0
0
0
0
0
0
0
0
0
0
0
0
0
0
0
0
0
0
0
0
0
0
0
0
0
0
0
0
0
0
0
0
0
0
0
0
0
0
0
0
0
0
0
0
0
0
0
0
0
0
0
0
0
0
0
0
0
0
0
0
0
0
0
0
0
0
0
0
0
0
0
0
0
0
0
0
0
0
0
0
0
0
0
0
0
0
0
0
0
0
0
0
0
0
0
0
0
0
0
0
0
0
0
0
0
0
0
0
0
0
0
0
0
0
0
0
0
0
0
0
0
0
0
0
0
0
0
0
0
0
0
0
0
0
0
0
0
0
0
0
0
0
0
0
0
0
0
0
0
0
0
0
0
0
0
0
0
0
0
0
0
0
0
0
0
0
0
0
0
0
0
0
0
0
0
0
0
0
0
0
0
0
0
0
0
0
0
0
0
0
0
0
0
0
0
0
0
0
0
0
0
0
0
0
0
0
0
0
0
0
0
0
0
0
0
0
0
0
0
0
0
0
0
0
0
0
0
0
0
0
0
0
0
0
0
0
0
0
0
0
0
0
0
0
0
0
0
0
0
0
0
0
0
0
0
0
0
0
0
0
0
0
0
0
0
0
0
0
0
0
0
0
0
0
0
0
0
0
0
0
0
0
0
0
0
0
0
0
0
0
0
0
0
0
0
0
0
0
0
0
0
0
0
0
0
0
0
0
0
0
0
0
0
0
0
0
0
0
0
0
0
0
0
0
0
0
0
0
0
0
0
0
0
0
0
0
0
0
0
0
0
0
0
0
0
0
0
0
0
0
0
0
0
0
0
0
0
0
0
0
0
0
0
0.062787
0.0345542
0.0299574
0.025277
0.0221391
0.0200069
0.0184495
0.0172639
0.0163155
0.0155312
0.0148652
0.0142884
0.013781
0.0133294
0.0129237
0.0125563
0.0122216
0.0119149
0.0116326
0.0113716
0.0111294
0.0109037
0.0106929
0.0104954
0.0103097
0.0101347
0.00996946
0.009813
0.00966456
0.00952344
0.00938904
0.0092608
0.00913825
0.00902093
0.00890844
0.00880038
0.00869638
0.00859604
0.00849892
0.00840457
0.00831246
0.00822199
0.00813252
0.0080434
0.00795398
0.00786378
0.00777258
0.00768058
0.00758865
0.00749855
0.0074131
0.00733638
0.00727374
0.00723169
0.00721751
0.00723863
0.00730161
0.00741089
0.00756725
0.0077661
0.00799584
0.00823639
0.00845813
0.00862178
0.00867902
0.00857492
0.00825163
0.00765526
0.00674454
0.00549871
0.00392974
0.00209665
0.000116224
-0.00183113
-0.00351475
-0.00468581
-0.0051135
-0.0046161
-0.00308316
-0.000488463
0.00312095
0.00763677
0.0129078
0.0187578
0.0249997
0.0314492
0.0379266
0.0442628
0.0503063
0.055929
0.0610113
0.0654412
0.0691334
0.0720388
0.0741326
0.0754013
0.0758424
0.0754718
0.0743277
0.0724681
0.069965
0.0669015
0.0633706
0.0594742
0.0553219
0.0510254
0.0466916
0.0424163
0.0382789
0.0343408
0.0306453
0.0272195
0.0240767
0.021219
0.0186406
0.0163293
0.0142693
0.0124421
0.0108283
0.00940815
0.0081623
0.00707235
0.00612105
0.00529245
0.00457202
0.0039466
0.0034044
0.00293489
0.00252876
0.00217776
0.00187465
0.00161309
0.00138751
0.00119308
0.00102558
0.000881339
0.000757183
0.000650353
0.000558461
0.000479443
0.000411515
0.000353137
0.000302977
0.00025989
0.000222886
0.000191114
0.000163839
0.000140429
0.000120342
0.000103108
8.83253e-05
7.56475e-05
6.47769e-05
5.54576e-05
4.74698e-05
4.06244e-05
3.47593e-05
2.97349e-05
2.54316e-05
2.17466e-05
1.85917e-05
1.58911e-05
1.35799e-05
1.16023e-05
9.91052e-06
8.46356e-06
7.22623e-06
6.16834e-06
5.26405e-06
4.4912e-06
3.83084e-06
3.26672e-06
2.7849e-06
2.37345e-06
2.02211e-06
1.72213e-06
1.46609e-06
1.24773e-06
1.0617e-06
9.03426e-07
7.68887e-07
6.54542e-07
5.57309e-07
4.74606e-07
4.04361e-07
3.44929e-07
2.94892e-07
2.52802e-07
2.16983e-07
1.85539e-07
1.56618e-07
1.28882e-07
1.01989e-07
7.68454e-08
5.54283e-08
4.01372e-08
3.28318e-08
3.38874e-08
4.16413e-08
5.25031e-08
6.17753e-08
6.49668e-08
5.91789e-08
4.40906e-08
2.2186e-08
-1.88234e-09
-2.26105e-08
-3.52295e-08
-3.70652e-08
-2.82598e-08
-1.16586e-08
8.06834e-09
2.57663e-08
3.71818e-08
3.99932e-08
3.42307e-08
2.20274e-08
6.84583e-09
-7.54927e-09
-1.80624e-08
-2.29341e-08
-2.19714e-08
-1.63514e-08
-8.11597e-09
4.58254e-10
7.43519e-09
1.16048e-08
1.262e-08
1.09019e-08
7.38293e-09
3.18646e-09
-6.67566e-10
-3.46589e-09
-4.8877e-09
-4.9807e-09
-4.06e-09
-2.57245e-09
-9.66678e-10
4.03301e-10
1.32778e-09
1.74607e-09
1.71759e-09
1.37529e-09
8.76731e-10
3.64351e-10
-5.93003e-11
-3.40386e-10
-4.69722e-10
-4.70685e-10
-3.84206e-10
-2.54961e-10
-1.21276e-10
-9.64574e-12
6.65283e-11
1.05139e-10
1.11923e-10
9.66383e-11
6.97749e-11
4.02816e-11
1.44042e-11
-4.52931e-12
-1.56788e-11
-1.99369e-11
-1.91205e-11
-1.52858e-11
-1.02567e-11
-5.37617e-12
-1.44329e-12
1.22223e-12
2.65146e-12
3.08261e-12
2.83576e-12
2.2225e-12
1.49342e-12
8.17975e-13
2.87418e-13
-6.9295e-14
-2.64904e-13
-3.34294e-13
-3.19155e-13
-2.57881e-13
-1.80331e-13
-1.06329e-13
-4.65714e-14
-4.73987e-15
2.00771e-14
3.12235e-14
3.28416e-14
2.88217e-14
2.22604e-14
1.52969e-14
9.1846e-15
4.48176e-15
1.27245e-15
-6.32629e-16
-1.54131e-15
-1.77626e-15
-1.61641e-15
-1.27268e-15
-8.85983e-16
-5.37614e-16
-2.64382e-16
-7.38167e-17
4.31218e-17
1.02711e-16
1.22436e-16
1.17661e-16
1.00235e-16
7.83338e-17
5.69582e-17
3.86884e-17
2.44539e-17
1.41843e-17
7.2991e-18
3.03591e-18
6.47288e-19
-5.01008e-19
-8.96375e-19
-8.83636e-19
-6.87839e-19
-4.42957e-19
-2.19298e-19
-4.62164e-20
7.0833e-20
1.38533e-19
1.6826e-19
1.71824e-19
1.59382e-19
1.38702e-19
1.15171e-19
9.2173e-20
7.15685e-20
5.41609e-20
4.00818e-20
2.90807e-20
2.0726e-20
1.45334e-20
1.00396e-20
6.83958e-21
4.59939e-21
3.05535e-21
2.00632e-21
1.30308e-21
8.37521e-22
5.32926e-22
3.35863e-22
2.09718e-22
1.29788e-22
7.96309e-23
4.84504e-23
2.92408e-23
1.75088e-23
1.04038e-23
6.13587e-24
3.59245e-24
2.08838e-24
1.20559e-24
6.91235e-25
3.93684e-25
2.22753e-25
1.2523e-25
6.99597e-26
3.88414e-26
2.14335e-26
1.17567e-26
6.4108e-27
3.47549e-27
1.8734e-27
1.00414e-27
5.35233e-28
2.83731e-28
1.49595e-28
7.84521e-29
4.0926e-29
2.12388e-29
1.09653e-29
5.63249e-30
2.87868e-30
1.46394e-30
7.40824e-31
3.7307e-31
1.8697e-31
9.32566e-32
4.62952e-32
2.28749e-32
1.12505e-32
5.50793e-33
2.6843e-33
1.30231e-33
6.29014e-34
3.0247e-34
1.4481e-34
6.90277e-35
3.27622e-35
1.54833e-35
7.28637e-36