# vtk DataFile Version 2.0
FlowField
ASCII
DATASET STRUCTURED_GRID
DIMENSIONS 1602 1 52
POINTS 83304 float
0 0 0
0.1 0 0
0.2 0 0
0.3 0 0
0.4 0 0
0.5 0 0
0.6 0 0
0.7 0 0
0.8 0 0
0.9 0 0
1 0 0
1.1 0 0
1.2 0 0
1.3 0 0
1.4 0 0
1.5 0 0
1.6 0 0
1.7 0 0
1.8 0 0
1.9 0 0
2 0 0
2.1 0 0
2.2 0 0
2.3 0 0
2.4 0 0
2.5 0 0
2.6 0 0
2.7 0 0
2.8 0 0
2.9 0 0
3 0 0
3.1 0 0
3.2 0 0
3.3 0 0
3.4 0 0
3.5 0 0
3.6 0 0
3.7 0 0
3.8 0 0
3.9 0 0
4 0 0
4.1 0 0
4.2 0 0
4.3 0 0
4.4 0 0
4.5 0 0
4.6 0 0
4.7 0 0
4.8 0 0
4.9 0 0
5 0 0
5.1 0 0
5.2 0 0
5.3 0 0
5.4 0 0
5.5 0 0
5.6 0 0
5.7 0 0
5.8 0 0
5.9 0 0
6 0 0
6.1 0 0
6.2 0 0
6.3 0 0
6.4 0 0
6.5 0 0
6.6 0 0
6.7 0 0
6.8 0 0
6.9 0 0
7 0 0
7.1 0 0
7.2 0 0
7.3 0 0
7.4 0 0
7.5 0 0
7.6 0 0
7.7 0 0
7.8 0 0
7.9 0 0
8 0 0
8.1 0 0
8.2 0 0
8.3 0 0
8.4 0 0
8.5 0 0
8.6 0 0
8.7 0 0
8.8 0 0
8.9 0 0
9 0 0
9.1 0 0
9.2 0 0
9.3 0 0
9.4 0 0
9.5 0 0
9.6 0 0
9.7 0 0
9.8 0 0
9.9 0 0
10 0 0
10.1 0 0
10.2 0 0
10.3 0 0
10.4 0 0
10.5 0 0
10.6 0 0
10.7 0 0
10.8 0 0
10.9 0 0
11 0 0
11.1 0 0
11.2 0 0
11.3 0 0
11.4 0 0
11.5 0 0
11.6 0 0
11.7 0 0
11.8 0 0
11.9 0 0
12 0 0
12.1 0 0
12.2 0 0
12.3 0 0
12.4 0 0
12.5 0 0
12.6 0 0
12.7 0 0
12.8 0 0
12.9 0 0
13 0 0
13.1 0 0
13.2 0 0
13.3 0 0
13.4 0 0
13.5 0 0
13.6 0 0
13.7 0 0
13.8 0 0
13.9 0 0
14 0 0
14.1 0 0
14.2 0 0
14.3 0 0
14.4 0 0
14.5 0 0
14.6 0 0
14.7 0 0
14.8 0 0
14.9 0 0
15 0 0
15.1 0 0
15.2 0 0
15.3 0 0
15.4 0 0
15.5 0 0
15.6 0 0
15.7 0 0
15.8 0 0
15.9 0 0
16 0 0
16.1 0 0
16.2 0 0
16.3 0 0
16.4 0 0
16.5 0 0
16.6 0 0
16.7 0 0
16.8 0 0
16.9 0 0
17 0 0
17.1 0 0
17.2 0 0
17.3 0 0
17.4 0 0
17.5 0 0
17.6 0 0
17.7 0 0
17.8 0 0
17.9 0 0
18 0 0
18.1 0 0
18.2 0 0
18.3 0 0
18.4 0 0
18.5 0 0
18.6 0 0
18.7 0 0
18.8 0 0
18.9 0 0
19 0 0
19.1 0 0
19.2 0 0
19.3 0 0
19.4 0 0
19.5 0 0
19.6 0 0
19.7 0 0
19.8 0 0
19.9 0 0
20 0 0
20.1 0 0
20.2 0 0
20.3 0 0
20.4 0 0
20.5 0 0
20.6 0 0
20.7 0 0
20.8 0 0
20.9 0 0
21 0 0
21.1 0 0
21.2 0 0
21.3 0 0
21.4 0 0
21.5 0 0
21.6 0 0
21.7 0 0
21.8 0 0
21.9 0 0
22 0 0
22.1 0 0
22.2 0 0
22.3 0 0
22.4 0 0
22.5 0 0
22.6 0 0
22.7 0 0
22.8 0 0
22.9 0 0
23 0 0
23.1 0 0
23.2 0 0
23.3 0 0
23.4 0 0
23.5 0 0
23.6 0 0
23.7 0 0
23.8 0 0
23.9 0 0
24 0 0
24.1 0 0
24.2 0 0
24.3 0 0
24.4 0 0
24.5 0 0
24.6 0 0
24.7 0 0
24.8 0 0
24.9 0 0
25 0 0
25.1 0 0
25.2 0 0
25.3 0 0
25.4 0 0
25.5 0 0
25.6 0 0
25.7 0 0
25.8 0 0
25.9 0 0
26 0 0
26.1 0 0
26.2 0 0
26.3 0 0
26.4 0 0
26.5 0 0
26.6 0 0
26.7 0 0
26.8 0 0
26.9 0 0
27 0 0
27.1 0 0
27.2 0 0
27.3 0 0
27.4 0 0
27.5 0 0
27.6 0 0
27.7 0 0
27.8 0 0
27.9 0 0
28 0 0
28.1 0 0
28.2 0 0
28.3 0 0
28.4 0 0
28.5 0 0
28.6 0 0
28.7 0 0
28.8 0 0
28.9 0 0
29 0 0
29.1 0 0
29.2 0 0
29.3 0 0
29.4 0 0
29.5 0 0
29.6 0 0
29.7 0 0
29.8 0 0
29.9 0 0
30 0 0
30.1 0 0
30.2 0 0
30.3 0 0
30.4 0 0
30.5 0 0
30.6 0 0
30.7 0 0
30.8 0 0
30.9 0 0
31 0 0
31.1 0 0
31.2 0 0
31.3 0 0
31.4 0 0
31.5 0 0
31.6 0 0
31.7 0 0
31.8 0 0
31.9 0 0
32 0 0
32.1 0 0
32.2 0 0
32.3 0 0
32.4 0 0
32.5 0 0
32.6 0 0
32.7 0 0
32.8 0 0
32.9 0 0
33 0 0
33.1 0 0
33.2 0 0
33.3 0 0
33.4 0 0
33.5 0 0
33.6 0 0
33.7 0 0
33.8 0 0
33.9 0 0
34 0 0
34.1 0 0
34.2 0 0
34.3 0 0
34.4 0 0
34.5 0 0
34.6 0 0
34.7 0 0
34.8 0 0
34.9 0 0
35 0 0
35.1 0 0
35.2 0 0
35.3 0 0
35.4 0 0
35.5 0 0
35.6 0 0
35.7 0 0
35.8 0 0
35.9 0 0
36 0 0
36.1 0 0
36.2 0 0
36.3 0 0
36.4 0 0
36.5 0 0
36.6 0 0
36.7 0 0
36.8 0 0
36.9 0 0
37 0 0
37.1 0 0
37.2 0 0
37.3 0 0
37.4 0 0
37.5 0 0
37.6 0 0
37.7 0 0
37.8 0 0
37.9 0 0
38 0 0
38.1 0 0
38.2 0 0
38.3 0 0
38.4 0 0
38.5 0 0
38.6 0 0
38.7 0 0
38.8 0 0
38.9 0 0
39 0 0
39.1 0 0
39.2 0 0
39.3 0 0
39.4 0 0
39.5 0 0
39.6 0 0
39.7 0 0
39.8 0 0
39.9 0 0
40 0 0
40.1 0 0
40.2 0 0
40.3 0 0
40.4 0 0
40.5 0 0
40.6 0 0
40.7 0 0
40.8 0 0
40.9 0 0
41 0 0
41.1 0 0
41.2 0 0
41.3 0 0
41.4 0 0
41.5 0 0
41.6 0 0
41.7 0 0
41.8 0 0
41.9 0 0
42 0 0
42.1 0 0
42.2 0 0
42.3 0 0
42.4 0 0
42.5 0 0
42.6 0 0
42.7 0 0
42.8 0 0
42.9 0 0
43 0 0
43.1 0 0
43.2 0 0
43.3 0 0
43.4 0 0
43.5 0 0
43.6 0 0
43.7 0 0
43.8 0 0
43.9 0 0
44 0 0
44.1 0 0
44.2 0 0
44.3 0 0
44.4 0 0
44.5 0 0
44.6 0 0
44.7 0 0
44.8 0 0
44.9 0 0
45 0 0
45.1 0 0
45.2 0 0
45.3 0 0
45.4 0 0
45.5 0 0
45.6 0 0
45.7 0 0
45.8 0 0
45.9 0 0
46 0 0
46.1 0 0
46.2 0 0
46.3 0 0
46.4 0 0
46.5 0 0
46.6 0 0
46.7 0 0
46.8 0 0
46.9 0 0
47 0 0
47.1 0 0
47.2 0 0
47.3 0 0
47.4 0 0
47.5 0 0
47.6 0 0
47.7 0 0
47.8 0 0
47.9 0 0
48 0 0
48.1 0 0
48.2 0 0
48.3 0 0
48.4 0 0
48.5 0 0
48.6 0 0
48.7 0 0
48.8 0 0
48.9 0 0
49 0 0
49.1 0 0
49.2 0 0
49.3 0 0
49.4 0 0
49.5 0 0
49.6 0 0
49.7 0 0
49.8 0 0
49.9 0 0
50 0 0
50.1 0 0
50.2 0 0
50.3 0 0
50.4 0 0
50.5 0 0
50.6 0 0
50.7 0 0
50.8 0 0
50.9 0 0
51 0 0
51.1 0 0
51.2 0 0
51.3 0 0
51.4 0 0
51.5 0 0
51.6 0 0
51.7 0 0
51.8 0 0
51.9 0 0
52 0 0
52.1 0 0
52.2 0 0
52.3 0 0
52.4 0 0
52.5 0 0
52.6 0 0
52.7 0 0
52.8 0 0
52.9 0 0
53 0 0
53.1 0 0
53.2 0 0
53.3 0 0
53.4 0 0
53.5 0 0
53.6 0 0
53.7 0 0
53.8 0 0
53.9 0 0
54 0 0
54.1 0 0
54.2 0 0
54.3 0 0
54.4 0 0
54.5 0 0
54.6 0 0
54.7 0 0
54.8 0 0
54.9 0 0
55 0 0
55.1 0 0
55.2 0 0
55.3 0 0
55.4 0 0
55.5 0 0
55.6 0 0
55.7 0 0
55.8 0 0
55.9 0 0
56 0 0
56.1 0 0
56.2 0 0
56.3 0 0
56.4 0 0
56.5 0 0
56.6 0 0
56.7 0 0
56.8 0 0
56.9 0 0
57 0 0
57.1 0 0
57.2 0 0
57.3 0 0
57.4 0 0
57.5 0 0
57.6 0 0
57.7 0 0
57.8 0 0
57.9 0 0
58 0 0
58.1 0 0
58.2 0 0
58.3 0 0
58.4 0 0
58.5 0 0
58.6 0 0
58.7 0 0
58.8 0 0
58.9 0 0
59 0 0
59.1 0 0
59.2 0 0
59.3 0 0
59.4 0 0
59.5 0 0
59.6 0 0
59.7 0 0
59.8 0 0
59.9 0 0
60 0 0
60.1 0 0
60.2 0 0
60.3 0 0
60.4 0 0
60.5 0 0
60.6 0 0
60.7 0 0
60.8 0 0
60.9 0 0
61 0 0
61.1 0 0
61.2 0 0
61.3 0 0
61.4 0 0
61.5 0 0
61.6 0 0
61.7 0 0
61.8 0 0
61.9 0 0
62 0 0
62.1 0 0
62.2 0 0
62.3 0 0
62.4 0 0
62.5 0 0
62.6 0 0
62.7 0 0
62.8 0 0
62.9 0 0
63 0 0
63.1 0 0
63.2 0 0
63.3 0 0
63.4 0 0
63.5 0 0
63.6 0 0
63.7 0 0
63.8 0 0
63.9 0 0
64 0 0
64.1 0 0
64.2 0 0
64.3 0 0
64.4 0 0
64.5 0 0
64.6 0 0
64.7 0 0
64.8 0 0
64.9 0 0
65 0 0
65.1 0 0
65.2 0 0
65.3 0 0
65.4 0 0
65.5 0 0
65.6 0 0
65.7 0 0
65.8 0 0
65.9 0 0
66 0 0
66.1 0 0
66.2 0 0
66.3 0 0
66.4 0 0
66.5 0 0
66.6 0 0
66.7 0 0
66.8 0 0
66.9 0 0
67 0 0
67.1 0 0
67.2 0 0
67.3 0 0
67.4 0 0
67.5 0 0
67.6 0 0
67.7 0 0
67.8 0 0
67.9 0 0
68 0 0
68.1 0 0
68.2 0 0
68.3 0 0
68.4 0 0
68.5 0 0
68.6 0 0
68.7 0 0
68.8 0 0
68.9 0 0
69 0 0
69.1 0 0
69.2 0 0
69.3 0 0
69.4 0 0
69.5 0 0
69.6 0 0
69.7 0 0
69.8 0 0
69.9 0 0
70 0 0
70.1 0 0
70.2 0 0
70.3 0 0
70.4 0 0
70.5 0 0
70.6 0 0
70.7 0 0
70.8 0 0
70.9 0 0
71 0 0
71.1 0 0
71.2 0 0
71.3 0 0
71.4 0 0
71.5 0 0
71.6 0 0
71.7 0 0
71.8 0 0
71.9 0 0
72 0 0
72.1 0 0
72.2 0 0
72.3 0 0
72.4 0 0
72.5 0 0
72.6 0 0
72.7 0 0
72.8 0 0
72.9 0 0
73 0 0
73.1 0 0
73.2 0 0
73.3 0 0
73.4 0 0
73.5 0 0
73.6 0 0
73.7 0 0
73.8 0 0
73.9 0 0
74 0 0
74.1 0 0
74.2 0 0
74.3 0 0
74.4 0 0
74.5 0 0
74.6 0 0
74.7 0 0
74.8 0 0
74.9 0 0
75 0 0
75.1 0 0
75.2 0 0
75.3 0 0
75.4 0 0
75.5 0 0
75.6 0 0
75.7 0 0
75.8 0 0
75.9 0 0
76 0 0
76.1 0 0
76.2 0 0
76.3 0 0
76.4 0 0
76.5 0 0
76.6 0 0
76.7 0 0
76.8 0 0
76.9 0 0
77 0 0
77.1 0 0
77.2 0 0
77.3 0 0
77.4 0 0
77.5 0 0
77.6 0 0
77.7 0 0
77.8 0 0
77.9 0 0
78 0 0
78.1 0 0
78.2 0 0
78.3 0 0
78.4 0 0
78.5 0 0
78.6 0 0
78.7 0 0
78.8 0 0
78.9 0 0
79 0 0
79.1 0 0
79.2 0 0
79.3 0 0
79.4 0 0
79.5 0 0
79.6 0 0
79.7 0 0
79.8 0 0
79.9 0 0
80 0 0
80.1 0 0
80.2 0 0
80.3 0 0
80.4 0 0
80.5 0 0
80.6 0 0
80.7 0 0
80.8 0 0
80.9 0 0
81 0 0
81.1 0 0
81.2 0 0
81.3 0 0
81.4 0 0
81.5 0 0
81.6 0 0
81.7 0 0
81.8 0 0
81.9 0 0
82 0 0
82.1 0 0
82.2 0 0
82.3 0 0
82.4 0 0
82.5 0 0
82.6 0 0
82.7 0 0
82.8 0 0
82.9 0 0
83 0 0
83.1 0 0
83.2 0 0
83.3 0 0
83.4 0 0
83.5 0 0
83.6 0 0
83.7 0 0
83.8 0 0
83.9 0 0
84 0 0
84.1 0 0
84.2 0 0
84.3 0 0
84.4 0 0
84.5 0 0
84.6 0 0
84.7 0 0
84.8 0 0
84.9 0 0
85 0 0
85.1 0 0
85.2 0 0
85.3 0 0
85.4 0 0
85.5 0 0
85.6 0 0
85.7 0 0
85.8 0 0
85.9 0 0
86 0 0
86.1 0 0
86.2 0 0
86.3 0 0
86.4 0 0
86.5 0 0
86.6 0 0
86.7 0 0
86.8 0 0
86.9 0 0
87 0 0
87.1 0 0
87.2 0 0
87.3 0 0
87.4 0 0
87.5 0 0
87.6 0 0
87.7 0 0
87.8 0 0
87.9 0 0
88 0 0
88.1 0 0
88.2 0 0
88.3 0 0
88.4 0 0
88.5 0 0
88.6 0 0
88.7 0 0
88.8 0 0
88.9 0 0
89 0 0
89.1 0 0
89.2 0 0
89.3 0 0
89.4 0 0
89.5 0 0
89.6 0 0
89.7 0 0
89.8 0 0
89.9 0 0
90 0 0
90.1 0 0
90.2 0 0
90.3 0 0
90.4 0 0
90.5 0 0
90.6 0 0
90.7 0 0
90.8 0 0
90.9 0 0
91 0 0
91.1 0 0
91.2 0 0
91.3 0 0
91.4 0 0
91.5 0 0
91.6 0 0
91.7 0 0
91.8 0 0
91.9 0 0
92 0 0
92.1 0 0
92.2 0 0
92.3 0 0
92.4 0 0
92.5 0 0
92.6 0 0
92.7 0 0
92.8 0 0
92.9 0 0
93 0 0
93.1 0 0
93.2 0 0
93.3 0 0
93.4 0 0
93.5 0 0
93.6 0 0
93.7 0 0
93.8 0 0
93.9 0 0
94 0 0
94.1 0 0
94.2 0 0
94.3 0 0
94.4 0 0
94.5 0 0
94.6 0 0
94.7 0 0
94.8 0 0
94.9 0 0
95 0 0
95.1 0 0
95.2 0 0
95.3 0 0
95.4 0 0
95.5 0 0
95.6 0 0
95.7 0 0
95.8 0 0
95.9 0 0
96 0 0
96.1 0 0
96.2 0 0
96.3 0 0
96.4 0 0
96.5 0 0
96.6 0 0
96.7 0 0
96.8 0 0
96.9 0 0
97 0 0
97.1 0 0
97.2 0 0
97.3 0 0
97.4 0 0
97.5 0 0
97.6 0 0
97.7 0 0
97.8 0 0
97.9 0 0
98 0 0
98.1 0 0
98.2 0 0
98.3 0 0
98.4 0 0
98.5 0 0
98.6 0 0
98.7 0 0
98.8 0 0
98.9 0 0
99 0 0
99.1 0 0
99.2 0 0
99.3 0 0
99.4 0 0
99.5 0 0
99.6 0 0
99.7 0 0
99.8 0 0
99.9 0 0
100 0 0
100.1 0 0
100.2 0 0
100.3 0 0
100.4 0 0
100.5 0 0
100.6 0 0
100.7 0 0
100.8 0 0
100.9 0 0
101 0 0
101.1 0 0
101.2 0 0
101.3 0 0
101.4 0 0
101.5 0 0
101.6 0 0
101.7 0 0
101.8 0 0
101.9 0 0
102 0 0
102.1 0 0
102.2 0 0
102.3 0 0
102.4 0 0
102.5 0 0
102.6 0 0
102.7 0 0
102.8 0 0
102.9 0 0
103 0 0
103.1 0 0
103.2 0 0
103.3 0 0
103.4 0 0
103.5 0 0
103.6 0 0
103.7 0 0
103.8 0 0
103.9 0 0
104 0 0
104.1 0 0
104.2 0 0
104.3 0 0
104.4 0 0
104.5 0 0
104.6 0 0
104.7 0 0
104.8 0 0
104.9 0 0
105 0 0
105.1 0 0
105.2 0 0
105.3 0 0
105.4 0 0
105.5 0 0
105.6 0 0
105.7 0 0
105.8 0 0
105.9 0 0
106 0 0
106.1 0 0
106.2 0 0
106.3 0 0
106.4 0 0
106.5 0 0
106.6 0 0
106.7 0 0
106.8 0 0
106.9 0 0
107 0 0
107.1 0 0
107.2 0 0
107.3 0 0
107.4 0 0
107.5 0 0
107.6 0 0
107.7 0 0
107.8 0 0
107.9 0 0
108 0 0
108.1 0 0
108.2 0 0
108.3 0 0
108.4 0 0
108.5 0 0
108.6 0 0
108.7 0 0
108.8 0 0
108.9 0 0
109 0 0
109.1 0 0
109.2 0 0
109.3 0 0
109.4 0 0
109.5 0 0
109.6 0 0
109.7 0 0
109.8 0 0
109.9 0 0
110 0 0
110.1 0 0
110.2 0 0
110.3 0 0
110.4 0 0
110.5 0 0
110.6 0 0
110.7 0 0
110.8 0 0
110.9 0 0
111 0 0
111.1 0 0
111.2 0 0
111.3 0 0
111.4 0 0
111.5 0 0
111.6 0 0
111.7 0 0
111.8 0 0
111.9 0 0
112 0 0
[...]
POINT_DATA 83304

SCALARS pressure float 1
LOOKUP_TABLE default
0
0
0
0
0
0
0
0
0
0
0
0
0
0
0
0
0
0
0
0
0
0
0
0
0
0
0
0
0
0
0
0
0
0
0
0
0
0
0
0
0
0
0
0
0
0
0
0
0
0
0
0
0
0
0
0
0
0
0
0
0
0
0
0
0
0
0
0
0
0
0
0
0
0
0
0
0
0
0
0
0
0
0
0
0
0
0
0
0
0
0
0
0
0
0
0
0
0
0
0
0
0
0
0
0
0
0
0
0
0
0
0
0
0
0
0
0
0
0
0
0
0
0
0
0
0
0
0
0
0
0
0
0
0
0
0
0
0
0
0
0
0
0
0
0
0
0
0
0
0
0
0
0
0
0
0
0
0
0
0
0
0
0
0
0
0
0
0
0
0
0
0
0
0
0
0
0
0
0
0
0
0
0
0
0
0
0
0
0
0
0
0
0
0
0
0
0
0
0
0
0
0
0
0
0
0
0
0
0
0
0
0
0
0
0
0
0
0
0
0
0
0
0
0
0
0
0
0
0
0
0
0
0
0
0
0
0
0
0
0
0
0
0
0
0
0
0
0
0
0
0
0
0
0
0
0
0
0
0
0
0
0
0
0
0
0
0
0
0
0
0
0
0
0
0
0
0
0
0
0
0
0
0
0
0
0
0
0
0
0
0
0
0
0
0
0
0
0
0
0
0
0
0
0
0
0
0
0
0
0
0
0
0
0
0
0
0
0
0
0
0
0
0
0
0
0
0
0
0
0
0
0
0
0
0
0
0
0
0
0
0
0
0
0
0
0
0
0
0
0
0
0
0
0
0
0
0
0
0
0
0
0
0
0
0
0
0
0
0
0
0
0
0
0
0
0
0
0
0
0
0
0
0
0
0
0
0
0
0
0
0
0
0
0
0
0
0
0
0
0
0
0
0
0
0
0
0
0
0
0
0
0
0
0
0
0
0
0
0
0
0
0
0
0
0
0
0
0
0
0
0
0
0
0
0
0
0
0
0
0
0
0
0
0
0
0
0
0
0
0
0
0
0
0
0
0
0
0
0
0
0
0
0
0
0
0
0
0
0
0
0
0
0
0
0
0
0
0
0
0
0
0
0
0
0
0
0
0
0
0
0
0
0
0
0
0
0
0
0
0
0
0
0
0
0
0
0
0
0
0
0
0
0
0
0
0
0
0
0
0
0
0
0
0
0
0
0
0
0
0
0
0
0
0
0
0
0
0
0
0
0
0
0
0
0
0
0
0
0
0
0
0
0
0
0
0
0
0
0
0
0
0
0
0
0
0
0
0
0
0
0
0
0
0
0
0
0
0
0
0
0
0
0
0
0
0
0
0
0
0
0
0
0
0
0
0
0
0
0
0
0
0
0
0
0
0
0
0
0
0
0
0
0
0
0
0
0
0
0
0
0
0
0
0
0
0
0
0
0
0
0
0
0
0
0
0
0
0
0
0
0
0
0
0
0
0
0
0
0
0
0
0
0
0
0
0
0
0
0
0
0
0
0
0
0
0
0
0
0
0
0
0
0
0
0
0
0
0
0
0
0
0
0
0
0
0
0
0
0
0
0
0
0
0
0
0
0
0
0
0
0
0
0
0
0
0
0
0
0
0
0
0
0
0
0
0
0
0
0
0
0
0
0
0
0
0
0
0
0
0
0
0
0
0
0
0
0
0
0
0
0
0
0
0
0
0
0
0
0
0
0
0
0
0
0
0
0
0
0
0
0
0
0
0
0
0
0
0
0
0
0
0
0
0
0
0
0
0
0
0
0
0
0
0
0
0
0
0
0
0
0
0
0
0
0
0
0
0
0
0
0
0
0
0
0
0
0
0
0
0
0
0
0
0
0
0
0
0
0
0
0
0
0
0
0
0
0
0
0
0
0
0
0
0
0
0
0
0
0
0
0
0
0
0
0
0
0
0
0
0
0
0
0
0
0
0
0
0
0
0
0
0
0
0
0
0
0
0
0
0
0
0
0
0
0
0
0
0
0
0
0
0
0
0
0
0
0
0
0
0
0
0
0
0
0
0
0
0
0
0
0
0
0
0
0
0
0
0
0
0
0
0
0
0
0
0
0
0
0
0
0
0
0
0
0
0
0
0
0
0
0
0
0
0
0
0
0
0
0
0
0
0
0
0
0
0
0
0
0
0
0
0
0
0
0
0
0
0
0
0
0
0
0
0
0
0
0
0
0
0
0
0
0
0
0
0
0
0
0
0
0
0
0
0
0
0
0
0
0
0
0
0
0
0
0
0
0
0
0
0
0
0
0
0
0
0
0
0
0
0
0
0
0
0
0
0
0
0
0
0
0
0
0
0
0
0
0
0
0
0
0
0
0
0
0
0
0
0
0
0
0
0
0
0
0
0
0
0
0
0
0
0
0
0
0
0
0
0
0
0
0
0
0
0
0
0
0
0
0
0
0
0
0
0
0
0
0
0
0
0
0
0
0
0
0
0
0
0
0
0
0
0
0
0
0
0
0
0
0
0
0
0
0
0
0
0
0
0
0
0
0
0
0
0
0
0
0
0
0
0
0
0
0
0
0
0
0
0
0
0
0
0
0
0
0
0
0
0
0
0
0
0
0
0
0
0
0
0
0
0
0
0
0
0
0
0
0
0
0
0
0
0
0
0
0
0
0
0
0
0
0
0
0
0
0
0
0
0
0
0
0
0
0
0
0
0
0
0
0
0
0
0
0
0
0
0
0
0
0
0
0
0
0
0
0
0
0
0
0
0
0
0
0
0
0
0
0
0
0
0
0
0
0
0
0
0
0
0
0
0
0
0
0
0
0
0
0
0
0
0
0
0
0
0
0
0
0
0
0
0
0
0
0
0
0
0
0
0
0
0
0
0
0
0
0
0
0
0
0
0
0
0
0
0
0
0
0
0
0
0
0
0
0
0
0
0
0
0
0
0
0
0
0
0
0
0
0
0
0
0
0
0
0
0
0
0
0
0
0
0
0
0
0
0
0
0
0
0
0
0
0
0
0
0
0
0
0
0
0
0
0
0
0
0
0
0
0
0
0
0
0
0
0
0
0
0
0
0
0
0
0
0
0
0
0
0
0
0
0
0
0
0
0
0
0
0
0
0
0
0
0
0
0
0
0
0
0
0
0
0
0
0
0
0
0
0
0
0
0
0
0
0
0
0
0
0
0
0
0
0
0
0
0
0
0
0
0
0
0
0
0
0
0
0
0
0
0
0
0
0
0
0
0
0
0
0
0
0
0
0
0
0
0
0
0
0
0
0
0
0
0
0
0
0
0
0
0
0
0
0
0
0
0
0
0
0
0
0
0
0
0
0
0
0
0
0
0
0
0
0
0
0
0
0
0
0
0
0
0
0
0
0
0
0
0
0
0
0
0
0
0
0
0
0
0
0
0
0
0
0
0
0
0
0
0
0
0
0
0
0
0
0
0
0
0
0
0
0
0
0
0
0
0
0
0
0
0
0
0
0
0
0
0
0
0
0
0
0
0
0
0
0
0
0
0
0
0
0
0
0
0
0
0
0
0
0
0
0
0
0
0
0
0
0
0
0
0
0
0
0
0
0
0
0
0
0
0
0
0
0
0
0
0
0
0
0
0
0
0
0
0
0
0
0
0
0
0
0
0
0
0
0
0
0.0776413
0.0529029
0.0436504
0.0357426
0.0304801
0.027109
0.0248023
0.0231166
0.0218018
0.0207293
0.0198258
0.019047
0.0183643
0.0177586
0.0172161
0.016727
0.0162839
0.0158814
0.015515
0.0151809
0.0148753
0.014593
0.0143265
0.0140643
0.0137891
0.0134771
0.0130967
0.01261
0.0119764
0.0111588
0.0101341
0.00890626
0.00752127
0.00607956
0.004742
0.00372414
0.0032757
0.00364793
0.00505554
0.00764257
0.011466
0.0164909
0.0226048
0.0296446
0.0374117
0.0456953
0.0542928
0.0630011
0.0716539
0.0800953
0.0881583
0.095682
0.10252
0.108555
0.113667
0.117701
0.120477
0.121837
0.12169
0.120029
0.116917
0.11248
0.106895
0.100384
0.0932039
0.0856252
0.0779086
0.0702814
0.0629243
0.0559682
0.0494978
0.0435597
0.0381701
0.0333232
0.0289979
0.0251631
0.0217818
0.0188143
0.0162204
0.0139607
0.0119981
0.0102979
0.00882822
0.00756029
0.00646825
0.00552909
0.0047225
0.00403059
0.00343766
0.00293
0.00249567
0.00212436
0.0018072
0.0015365
0.00130559
0.00110862
0.000940625
0.000797429
0.000675602
0.000572251
0.000484783
0.000410772
0.000348006
0.000294685
0.000249582
0.00021197
0.000181282
0.00015662
0.000136425
0.000118548
0.000100806
8.17804e-05
6.1491e-05
4.15443e-05
2.46153e-05
1.34129e-05
9.54351e-06
1.27436e-05
2.08026e-05
3.02077e-05
3.72552e-05
3.92011e-05
3.50406e-05
2.56728e-05
1.34502e-05
1.32964e-06
-8.05231e-06
-1.30787e-05
-1.34454e-05
-1.00299e-05
-4.45287e-06
1.4798e-06
6.27034e-06
9.034e-06
9.57434e-06
8.26368e-06
5.80956e-06
2.99814e-06
4.87715e-07
-1.30887e-06
-2.24866e-06
-2.41152e-06
-2.01494e-06
-1.32339e-06
-5.75891e-07
5.70192e-08
4.86538e-07
6.96242e-07
7.20099e-07
6.17361e-07
4.51113e-07
2.73917e-07
1.21068e-07
1.00371e-08
-5.61622e-08
-8.39466e-08
-8.42018e-08
-6.84093e-08
-4.62259e-08
-2.44187e-08
-6.8101e-09
5.18376e-09
1.17804e-08
1.40804e-08
1.34777e-08
1.12738e-08
8.48296e-09
5.77715e-09
3.52023e-09
1.84279e-09
7.251e-10
6.89308e-11
-2.50067e-10
-3.49806e-10
-3.25627e-10
-2.45664e-10
-1.53008e-10
-7.10315e-11
-9.38647e-12
3.06808e-11
5.2272e-11
6.01024e-11
5.88862e-11
5.25478e-11
4.39696e-11
3.50421e-11
2.68533e-11
1.99118e-11
1.43503e-11
1.00848e-11
6.92829e-12
4.66223e-12
3.07799e-12
1.99627e-12
1.2733e-12
7.99481e-13
4.94546e-13
3.016e-13
1.81448e-13
1.07748e-13
6.31848e-14
3.66066e-14
2.09615e-14
1.18675e-14
6.64532e-15
3.6815e-15
2.01842e-15
1.09544e-15
5.88652e-16
3.13275e-16
1.65151e-16
8.62602e-17
4.46474e-17
2.29042e-17
1.16477e-17
5.87274e-18
2.93617e-18
1.45588e-18
7.16029e-19
3.49345e-19
1.69103e-19
8.12215e-20
3.87137e-20
1.83138e-20
8.59921e-21
4.00819e-21
1.85477e-21
8.52168e-22
3.88769e-22
1.76127e-22
7.92443e-23
3.54119e-23
1.57183e-23
6.93061e-24
3.03582e-24
1.32115e-24
5.71253e-25
2.45434e-25
1.04785e-25
4.44581e-26
1.87463e-26
7.8563e-27
3.27254e-27
1.35501e-27
5.57713e-28
2.282e-28
9.28285e-29
3.75429e-29
1.50966e-29
6.03608e-30
2.39981e-30
9.48776e-31
3.73024e-31
1.45853e-31
5.67178e-32
2.19364e-32
8.43868e-33
3.22895e-33
1.22898e-33
4.65311e-34
1.75255e-34
6.5667e-35
2.44786e-35
9.07828e-36
3.34978e-36
1.22981e-36
4.49247e-37
1.63294e-37
5.90624e-38
2.12579e-38
7.61395e-39
2.71391e-39
9.627e-40
3.39867e-40
1.19416e-40
4.17601e-41
1.45353e-41
5.03567e-42
1.73651e-42
5.96064e-43
2.03666e-43
6.92729e-44
2.34553e-44
7.90608e-45
2.65299e-45
8.86289e-46
2.94775e-46
9.76096e-47
3.21803e-47
1.05632e-47
3.45238e-48
1.12349e-48
3.64044e-49
1.17459e-49
3.77378e-50
1.20734e-50
3.84645e-51
1.22032e-51
3.8555e-52
1.21308e-52
3.8011e-53
1.18617e-53
3.68651e-54
1.14109e-54
3.51778e-55
1.08012e-55
3.30319e-56
1.00616e-56
3.05265e-57
9.22512e-58
2.7769e-58
8.32625e-59
2.48683e-59
7.39877e-60
2.19278e-60
6.47385e-61
1.904e-61
5.57848e-62
1.62823e-62
4.73453e-63
1.37152e-63
3.95822e-64
1.13809e-64
3.26018e-65
9.30459e-66
2.64577e-66
7.49572e-67
2.11585e-67
5.95082e-68
1.6676e-68
4.65628e-69
1.29545e-69
3.59127e-70
9.92026e-71
2.73057e-71
7.48934e-72
2.04692e-72
5.57482e-73
1.513e-73
4.09194e-74
1.10283e-74
2.962e-75
7.92796e-76
2.11467e-76
5.62129e-77
1.48917e-77
3.93166e-78
1.03451e-78
2.71284e-79
7.09007e-80
1.8468e-80
4.79444e-81
1.24053e-81
3.19915e-82
8.22287e-83
2.10659e-83
5.37908e-84
1.36903e-84
3.47296e-85
8.78158e-86
2.21328e-86
5.56026e-87
1.39237e-87
3.47551e-88
8.64751e-89
2.14476e-89
5.30252e-90
1.3068e-90
3.21043e-91
7.86226e-92
1.91941e-92
4.67119e-93
1.13326e-93
2.74083e-94
6.60825e-95
1.58835e-95
3.80598e-96
9.09184e-97
2.16523e-97
5.1408e-98
1.21684e-98
2.87154e-99
6.75589e-100
1.58467e-100
3.70582e-101
8.64027e-102
2.00849e-102
4.65496e-103
1.07564e-103
2.47818e-104
5.6926e-105
1.30379e-105
2.97732e-106
6.77905e-107
1.53901e-107
3.48375e-108
7.86299e-109
1.76957e-109
3.97093e-110
8.8851e-111
1.98236e-111
4.41017e-112
9.78331e-113
2.16409e-113
4.77342e-114
1.04991e-114
2.30272e-115
5.03622e-116
1.09836e-116
2.38872e-117
5.18046e-118
1.12036e-118
2.41622e-119
5.19646e-120
1.11449e-120
2.38364e-121
5.08403e-122
1.08139e-122
2.29383e-123
4.85235e-124
1.02367e-124
2.15368e-125
4.5188e-126
9.45558e-127
1.97324e-127
4.10676e-128
8.52416e-129
1.76457e-129
3.64302e-130
7.50111e-131
1.5404e-131
3.15491e-132
6.44449e-133
1.31293e-133
2.66778e-134
5.40648e-135
1.0928e-135
2.20306e-136
4.42975e-137
8.88381e-138
1.77701e-138
3.54531e-139
7.05496e-140
1.40027e-140
2.77212e-141
5.47389e-142
1.07812e-142
2.11799e-143
4.15025e-144
8.11181e-145
1.58146e-145
3.07537e-146
5.96538e-147
1.1542e-147
2.22758e-148
4.28839e-149
8.23503e-150
1.57743e-150
3.01406e-151
5.74475e-152
1.09222e-152
2.07146e-153
3.91892e-154
7.39578e-155
1.3923e-155
2.61465e-156
4.89812e-157
9.1534e-158
1.70638e-158
3.17329e-159
5.88693e-160
1.08947e-160
2.01135e-161
3.70436e-162
6.80599e-163
1.24745e-163
2.28095e-164
4.1607e-165
7.57144e-166
1.37453e-166
2.48942e-167
4.49789e-168
8.10756e-169
1.45795e-169
2.61561e-170
4.68142e-171
8.35915e-172
1.48911e-172
2.64652e-173
4.69255e-174
8.30098e-175
1.465e-175
2.57952e-176
4.53141e-177
7.94186e-178
1.3887e-178
2.42267e-179
4.21677e-180
7.32268e-181
1.26872e-181
2.19314e-182
3.78248e-183
6.50876e-184
1.11746e-184
1.91418e-185
3.2715e-186
5.57868e-187
9.49153e-188
1.61125e-188
2.72907e-189
4.61202e-190
7.77671e-191
1.30837e-191
2.19632e-192
3.67871e-193
6.14795e-194
1.02518e-194
1.70574e-195
2.8318e-196
4.69089e-197
7.7534e-198
1.27872e-198
2.10429e-199
3.4553e-200
5.6613e-201
9.25551e-202
1.50987e-202
2.45772e-203
3.99196e-204
6.46991e-205
1.04634e-205
1.68853e-206
2.719e-207
4.36895e-208
7.00508e-209
1.12078e-209
1.78935e-210
2.85066e-211
4.53179e-212
7.18904e-213
1.13802e-213
1.79766e-214
2.83365e-215
4.45727e-216
6.9964e-217
1.09589e-217
1.71296e-218
2.67187e-219
4.15886e-220
6.45989e-221
1.00131e-221
1.54885e-222
2.39082e-223
3.68284e-224
5.66131e-225
8.68468e-226
1.32951e-226
2.03112e-227
3.0966e-228
4.71131e-229
7.15332e-230
1.08388e-230
1.63897e-231
2.47327e-232
3.72466e-233
5.59781e-234
8.3959e-235
1.25671e-235
1.87726e-236
2.79856e-237
4.16359e-238
6.18196e-239
9.16032e-240
1.35464e-240
1.99923e-241
2.94466e-242
4.3285e-243
6.35e-244
9.29704e-245
1.35847e-245
1.98105e-246
2.88321e-247
4.18792e-248
6.07103e-249
8.78351e-250
1.26829e-250
1.82773e-251
2.62878e-252
3.7735e-253
5.40609e-254
7.72988e-255
1.1031e-255
1.57112e-256
2.23335e-257
3.16856e-258
4.48666e-259
6.34079e-260
8.94381e-261
1.25911e-261
1.76915e-262
2.48102e-263
3.47265e-264
4.85129e-265
6.76426e-266
9.41352e-267
1.30753e-267
1.8127e-268
2.50824e-269
3.46406e-270
4.77505e-271
6.56969e-272
9.02171e-273
1.23655e-273
1.69166e-274
2.30991e-275
3.14817e-276
4.28257e-277
5.8148e-278
7.88043e-279
1.06599e-279
1.43927e-280
1.93963e-281
2.60908e-282
3.50304e-283
4.69457e-284
6.27972e-285
8.38453e-286
1.11741e-286
1.48643e-287
1.97366e-288
2.61576e-289
3.46039e-290
4.56934e-291
6.02261e-292
7.92352e-293
1.04053e-293
1.36395e-294
1.78464e-295
2.33082e-296
3.03861e-297
3.95413e-298
5.13616e-299
6.65945e-300
8.61888e-301
1.11347e-301
1.43588e-302
1.84832e-303
2.37494e-304
3.04611e-305
3.89994e-306
4.98416e-307
6.35838e-308
8.09698e-309
1.02926e-309
1.30602e-310
1.65424e-311
2.09159e-312
2.63986e-313
3.32594e-314
4.1829e-315
5.25134e-316
6.58105e-317
8.2329e-318
1.02812e-318
1.28166e-319
1.59435e-320
1.9812e-321
2.42092e-322
2.96439e-323
0
0
0
0
0
0
0
0
0
0
0
0
0
0
0
0
0
0
0
0
0
0
0
0
0
0
0
0
0
0
0
0
0
0
0
0
0
0
0
0
0
0
0
0
0
0
0
0
0
0
0
0
0
0
0
0
0
0
0
0
0
0
0
0
0
0
0
0
0
0
0
0
0
0
0
0
0
0
0
0
0
0
0
0
0
0
0
0
0
0
0
0
0
0
0
0
0
0
0
0
0
0
0
0
0
0
0
0
0
0
0
0
0
0
0
0
0
0
0
0
0
0
0
0
0
0
0
0
0
0
0
0
0
0
0
0
0
0
0
0
0
0
0
0
0
0
0
0
0
0
0
0
0
0
0
0
0
0
0
0
0
0
0
0
0
0
0
0
0
0
0
0
0
0
0
0
0
0
0
0
0
0
0
0
0
0
0
0
0
0
0
0
0
0
0
0
0
0
0
0
0
0
0
0
0
0
0
0
0
0
0
0
0
0
0
0
0
0
0
0
0
0
0
0
0
0
0
0
0
0
0
0
0
0
0
0
0
0
0
0
0
0
0
0
0
0
0
0
0
0
0
0
0
0
0
0
0
0
0
0
0
0
0
0
0
0
0
0
0
0
0
0
0
0
0
0
0
0
0
0
0
0
0
0
0
0
0
0
0
0
0
0
0
0
0
0
0
0
0
0
0
0
0
0
0
0
0
0
0
0
0
0
0
0
0
0
0
0
0
0
0
0
0
0
0
0
0
0
0
0
0
0
0
0
0
0
0
0
0
0
0
0
0
0
0
0
0
0
0
0
0
0
0
0
0
0
0
0
0
0
0
0
0
0
0
0
0
0
0
0
0
0
0
0
0
0
0
0
0
0
0
0
0
0
0
0
0
0
0
0
0
0
0
0
0
0
0
0
0
0
0
0
0
0
0
0
0
0
0
0
0
0
0
0
0
0
0
0
0
0
0
0
0
0
0
0
0
0
0
0
0
0
0
0
0
0
0
0
0
0
0
0
0
0
0
0
0
0
0
0
0
0
0
0
0
0
0
0
0
0
0
0
0
0
0
0
0
0
0
0
0
0
0
0
0
0
0
0
0
0
0
0
0
0
0
0
0
0
0
0
0
0
0
0
0
0
0
0
0
0
0
0
0
0
0
0
0
0
0
0
0
0
0
0
0
0
0
0
0
0
0
0
0
0
0
0
0
0
0
0
0
0
0
0
0
0
0
0
0
0
0
0
0
0
0
0
0
0
0
0
0
0
0
0
0
0
0
0
0
0
0
0
0
0
0
0
0
0
0
0
0
0
0
0
0
0
0
0
0
0
0
0
0
0
0
0
0
0
0
0
0
0
0
0
0
0
0
0
0
0
0
0
0
0
0
0
0
0
0
0
0
0
0
0
0
0
0
0
0
0
0
0
0
0
0
0
0
0
0
0
0
0
0
0
0
0
0
0
0
0
0
0
0
0
0
0
0
0
0
0
0
0
0
0
0
0
0
0
0
0
0
0
0
0
0
0
0
0
0
0
0
0
0
0
0
0
0
0
0
0
0
0
0
0
0
0
0
0
0
0
0
0
0
0
0
0
0
0
0
0
0
0
0
0
0
0
0
0
0
0
0
0
0
0
0
0
0
0
0
0
0
0
0
0
0
0
0
0
0
0
0
0
0
0
0
0
0
0
0
0
0
0
0
0
0
0
0
0
0
0
0
0
0
0
0
0
0
0
0
0
0
0
0
0
0
0
0
0
0
0
0
0
0
0
0
0
0
0
0
0
0
0
0
0
0
0
0
0
0
0
0
0
0
0
0
0
0
0
0
0
0
0
0
0
0
0
0
0
0
0
0
0
0
0
0
0
0
0
0
0
0
0
0
0
0
0
0
0
0
0
0
0
0
0
0
0
0
0
0
0
0
0
0
0
0
0
0
0
0
0
0
0
0
0
0
0
0
0
0
0
0
0
0
0
0
0
0
0
0
0
0
0
0
0
0
0
0
0
0
0
0
0
0
0
0
0
0
0
0
0
0
0
0
0
0
0
0
0
0
0
0
0
0
0
0
0
0
0
0
0
0
0
0
0
0
0
0
0
0
0
0
0
0
0
0
0
0
0
0
0
0
0
0
0.0627868
0.0345542
0.0299575
0.0252771
0.0221393
0.0200072
0.01845
0.0172646
0.0163166
0.0155327
0.0148674
0.0142913
0.0137851
0.0133352
0.0129318
0.0125679
0.0122381
0.0119385
0.011666
0.0114178
0.0111912
0.0109827
0.0107868
0.0105951
0.0103952
0.0101693
0.00989384
0.00954022
0.00907693
0.00847422
0.00771138
0.00678642
0.0057274
0.00460301
0.00352903
0.0026666
0.00220862
0.00235509
0.00328204
0.0051111
0.00789182
0.0115958
0.0161274
0.0213432
0.027067
0.0331121
0.0393
0.0454583
0.0514413
0.0571302
0.0624128
0.0671982
0.0714154
0.0750176
0.0779635
0.0801972
0.0816524
0.0822746
0.0820404
0.0809612
0.0790783
0.0764552
0.0731724
0.069325
0.0650239
0.0603934
0.0555666
0.0506755
0.0458408
0.0411633
0.0367209
0.0325673
0.0287354
0.0252398
0.0220817
0.0192515
0.0167329
0.0145049
0.012544
0.0108257
0.00932566
0.0080205
0.00688808
0.00590796
0.00506145
0.0043317
0.00370365
0.00316394
0.00270073
0.00230362
0.00196348
0.00167238
0.00142348
0.00121089
0.00102944
0.000874602
0.000742445
0.000629649
0.000533514
0.000451833
0.00038268
0.000324222
0.000274689
0.000232529
0.000196635
0.000166429
0.000141681
0.000122078
0.00010677
9.41906e-05
8.23255e-05
6.93742e-05
5.45115e-05
3.83567e-05
2.28716e-05
1.06635e-05
3.95803e-06
3.66188e-06
8.90584e-06
1.72498e-05
2.54608e-05
3.05522e-05
3.06948e-05
2.56876e-05
1.68663e-05
6.54081e-06
-2.79675e-06
-9.20799e-06
-1.17674e-05
-1.06517e-05
-6.89963e-06
-1.97902e-06
2.67607e-06
6.01879e-06
7.56084e-06
7.35777e-06
5.85876e-06
3.69583e-06
1.48415e-06
-3.17822e-07
-1.46994e-06
-1.94119e-06
-1.85359e-06
-1.40767e-06
-8.13478e-07
-2.41847e-07
1.9914e-07
4.65683e-07
5.65016e-07
5.35679e-07
4.28123e-07
2.89897e-07
1.56987e-07
5.08981e-08
-2.01067e-08
-5.75008e-08
-6.83727e-08
-6.18127e-08
-4.6361e-08
-2.86133e-08
-1.27901e-08
-9.51946e-10
6.45853e-09
9.99644e-09
1.06746e-08
9.57468e-09
7.61865e-09
5.4728e-09
3.54302e-09
2.0203e-09
9.44784e-10
2.67634e-10
-9.98956e-11
-2.53212e-10
-2.75602e-10
-2.30433e-10
-1.60469e-10
-9.10025e-11
-3.43807e-11
5.53255e-12
2.97051e-11
4.13145e-11
4.40871e-11
4.13934e-11
3.58667e-11
2.93417e-11
2.2956e-11
1.73159e-11
1.26625e-11
9.01223e-12
6.26132e-12
4.25613e-12
2.83576e-12
1.8547e-12
1.19224e-12
7.5403e-13
4.69605e-13
2.88224e-13
1.7445e-13
1.04187e-13
6.14307e-14
3.5776e-14
2.05882e-14
1.1712e-14
6.58844e-15
3.66619e-15
2.01863e-15
1.10008e-15
5.93517e-16
3.1709e-16
1.67792e-16
8.79603e-17
4.56894e-17
2.352e-17
1.20012e-17
6.07091e-18
3.04501e-18
1.51458e-18
7.47186e-19
3.6564e-19
1.7751e-19
8.55048e-20
4.08701e-20
1.93873e-20
9.12792e-21
4.26594e-21
1.97919e-21
9.11661e-22
4.16957e-22
1.89365e-22
8.54072e-23
3.82573e-23
1.70212e-23
7.52247e-24
3.30259e-24
1.44047e-24
6.24222e-25
2.68776e-25
1.14997e-25
4.88942e-26
2.06598e-26
8.67606e-27
3.62135e-27
1.50243e-27
6.19616e-28
2.54024e-28
1.03532e-28
4.19517e-29
1.69011e-29
6.77012e-30
2.69658e-30
1.06804e-30
4.20667e-31
1.64773e-31
6.41873e-32
2.48684e-32
9.58292e-33
3.67299e-33
1.40033e-33
5.31065e-34
2.00349e-34
7.51912e-35
2.80739e-35
1.04282e-35
3.85394e-36
1.41711e-36
5.18465e-37
1.88742e-37
6.83701e-38
2.46448e-38
8.84014e-39
3.15561e-39
1.12101e-39
3.96328e-40
1.39453e-40
4.88365e-41
1.70222e-41
5.90547e-42
2.03926e-42
7.00944e-43
2.39827e-43
8.16822e-44
2.76939e-44
9.34715e-45
3.14068e-45
1.05058e-45
3.49868e-46
1.16001e-46
3.82923e-47
1.25853e-47
4.11841e-48
1.34189e-48
4.35351e-49
1.40638e-49
4.52396e-50
1.44909e-50
4.62215e-51
1.46816e-51
4.64399e-52
1.46288e-52
4.58913e-53
1.43374e-53
4.46102e-54
1.38239e-54
4.26648e-55
1.31147e-55
4.01518e-56
1.22438e-56
3.71881e-57
1.12505e-57
3.39025e-58
1.01762e-58
3.04263e-59
9.06197e-60
2.68854e-60
7.94582e-61
2.33935e-61
6.86109e-62
2.00466e-62
5.83504e-63
1.69204e-63
4.88817e-64
1.40689e-64
4.03418e-65
1.1525e-65
3.28037e-66
9.3027e-67
2.62848e-67
7.39971e-68
2.07562e-68
5.80108e-69
1.61549e-69
4.48271e-70
1.23943e-70
3.41474e-71
9.37458e-72
2.56454e-72
6.99097e-73
1.89907e-73
5.14075e-74
1.38675e-74
3.7279e-75
9.98682e-76
2.66621e-76
7.09366e-77
1.88088e-77
4.97016e-78
1.3089e-78
3.43534e-79
8.98609e-80
2.34267e-80
6.08692e-81
1.57628e-81
4.06843e-82
1.0466e-82
2.68347e-83
6.85781e-84
1.74682e-84
4.43497e-85
1.12232e-85
2.83096e-86
7.11777e-87
1.78382e-87
4.45618e-88
1.10964e-88
2.7543e-89
6.81489e-90
1.68084e-90
4.13255e-91
1.01284e-91
2.47455e-92
6.02684e-93
1.46327e-93
3.54167e-94
8.54557e-95
2.05555e-95
4.92919e-96
1.17838e-96
2.80841e-97
6.67281e-98
1.58063e-98
3.73278e-99
8.78853e-100
2.06294e-100
4.82779e-101
1.12643e-101
2.62034e-102
6.07735e-103
1.40532e-103
3.24001e-104
7.44785e-105
1.70699e-105
3.9008e-106
8.88789e-107
2.01917e-107
4.57379e-108
1.03304e-108
2.32645e-109
5.22411e-110
1.16971e-110
2.6115e-111
5.81373e-112
1.29055e-112
2.85664e-113
6.30517e-114
1.38773e-114
3.04565e-115
6.66543e-116
1.45463e-116
3.16558e-117
6.8697e-118
1.48664e-118
3.20822e-119
6.90419e-120
1.48169e-120
3.17101e-121
6.76766e-122
1.4404e-122
3.05729e-123
6.47141e-124
1.36607e-124
2.87584e-125
6.03775e-126
1.26417e-126
2.63975e-127
5.49728e-128
1.14173e-128
2.3649e-129
4.88537e-130
1.00652e-130
2.06818e-131
4.23838e-132
8.66281e-133
1.76591e-133
3.59031e-134
7.28033e-135
1.47241e-135
2.97009e-136
5.97548e-137
1.19907e-137
2.39985e-138
4.79068e-139
9.5386e-140
1.89431e-140
3.75228e-141
7.41351e-142
1.46096e-142
2.8717e-143
5.6303e-144
1.10107e-144
2.14782e-145
4.17904e-146
8.11065e-147
1.57014e-147
3.03198e-148
5.84013e-149
1.12209e-149
2.15055e-150
4.11134e-151
7.84036e-152
1.49145e-152
2.83012e-153
5.35703e-154
1.01151e-154
1.90524e-155
3.57979e-156
6.70966e-157
1.25453e-157
2.33991e-158
4.3537e-159
8.08093e-160
1.49627e-160
2.7638e-161
5.09276e-162
9.36164e-163
1.71674e-163
3.14062e-164
5.73172e-165
1.04356e-165
1.89544e-166
3.43454e-167
6.20862e-168
1.11967e-168
2.01446e-169
3.61578e-170
6.47471e-171
1.15669e-171
2.06155e-172
3.66566e-173
6.50273e-174
1.15087e-174
2.03209e-175
3.57974e-176
6.29149e-177
1.10319e-177
1.92993e-178
3.36846e-179
5.86574e-180
1.0191e-180
1.7665e-181
3.05505e-182
5.27147e-183
9.07517e-184
1.5588e-184
2.6714e-185
4.56777e-186
7.79269e-187
1.32645e-187
2.25276e-188
3.81735e-189
6.4541e-190
1.08877e-190
1.83259e-191
3.0777e-192
5.15727e-193
8.62278e-194
1.43851e-194
2.39449e-195
3.977e-196
6.59083e-197
1.08985e-197
1.79821e-198
2.96047e-199
4.86327e-200
7.97164e-201
1.30382e-201
2.12786e-202
3.46517e-203
5.63071e-204
9.12979e-205
1.47713e-205
2.38473e-206
3.84171e-207
6.17555e-208
9.9059e-209
1.58556e-209
2.53244e-210
4.03618e-211
6.41912e-212
1.01872e-212
1.6133e-213
2.54948e-214
4.0204e-215
6.32657e-216
9.93464e-217
1.55676e-217
2.43431e-218
3.79858e-219
5.915e-220
9.19139e-221
1.42528e-221
2.20553e-222
3.40584e-223
5.24846e-224
8.07122e-225
1.23865e-225
1.89696e-226
2.89916e-227
4.42172e-228
6.73004e-229
1.02224e-229
1.54952e-230
2.34398e-231
3.53852e-232
5.33095e-233
8.01499e-234