# vtk DataFile Version 2.0
FlowField
ASCII
DATASET STRUCTURED_GRID
DIMENSIONS 1602 1 52
POINTS 83304 float
0 0 0
0.1 0 0
0.2 0 0
0.3 0 0
0.4 0 0
0.5 0 0
0.6 0 0
0.7 0 0
0.8 0 0
0.9 0 0
1 0 0
1.1 0 0
1.2 0 0
1.3 0 0
1.4 0 0
1.5 0 0
1.6 0 0
1.7 0 0
1.8 0 0
1.9 0 0
2 0 0
2.1 0 0
2.2 0 0
2.3 0 0
2.4 0 0
2.5 0 0
2.6 0 0
2.7 0 0
2.8 0 0
2.9 0 0
3 0 0
3.1 0 0
3.2 0 0
3.3 0 0
3.4 0 0
3.5 0 0
3.6 0 0
3.7 0 0
3.8 0 0
3.9 0 0
4 0 0
4.1 0 0
4.2 0 0
4.3 0 0
4.4 0 0
4.5 0 0
4.6 0 0
4.7 0 0
4.8 0 0
4.9 0 0
5 0 0
5.1 0 0
5.2 0 0
5.3 0 0
5.4 0 0
5.5 0 0
5.6 0 0
5.7 0 0
5.8 0 0
5.9 0 0
6 0 0
6.1 0 0
6.2 0 0
6.3 0 0
6.4 0 0
6.5 0 0
6.6 0 0
6.7 0 0
6.8 0 0
6.9 0 0
7 0 0
7.1 0 0
7.2 0 0
7.3 0 0
7.4 0 0
7.5 0 0
7.6 0 0
7.7 0 0
7.8 0 0
7.9 0 0
8 0 0
8.1 0 0
8.2 0 0
8.3 0 0
8.4 0 0
8.5 0 0
8.6 0 0
8.7 0 0
8.8 0 0
8.9 0 0
9 0 0
9.1 0 0
9.2 0 0
9.3 0 0
9.4 0 0
9.5 0 0
9.6 0 0
9.7 0 0
9.8 0 0
9.9 0 0
10 0 0
10.1 0 0
10.2 0 0
10.3 0 0
10.4 0 0
10.5 0 0
10.6 0 0
10.7 0 0
10.8 0 0
10.9 0 0
11 0 0
11.1 0 0
11.2 0 0
11.3 0 0
11.4 0 0
11.5 0 0
11.6 0 0
11.7 0 0
11.8 0 0
11.9 0 0
12 0 0
12.1 0 0
12.2 0 0
12.3 0 0
12.4 0 0
12.5 0 0
12.6 0 0
12.7 0 0
12.8 0 0
12.9 0 0
13 0 0
13.1 0 0
13.2 0 0
13.3 0 0
13.4 0 0
13.5 0 0
13.6 0 0
13.7 0 0
13.8 0 0
13.9 0 0
14 0 0
14.1 0 0
14.2 0 0
14.3 0 0
14.4 0 0
14.5 0 0
14.6 0 0
14.7 0 0
14.8 0 0
14.9 0 0
15 0 0
15.1 0 0
15.2 0 0
15.3 0 0
15.4 0 0
15.5 0 0
15.6 0 0
15.7 0 0
15.8 0 0
15.9 0 0
16 0 0
16.1 0 0
16.2 0 0
16.3 0 0
16.4 0 0
16.5 0 0
16.6 0 0
16.7 0 0
16.8 0 0
16.9 0 0
17 0 0
17.1 0 0
17.2 0 0
17.3 0 0
17.4 0 0
17.5 0 0
17.6 0 0
17.7 0 0
17.8 0 0
17.9 0 0
18 0 0
18.1 0 0
18.2 0 0
18.3 0 0
18.4 0 0
18.5 0 0
18.6 0 0
18.7 0 0
18.8 0 0
18.9 0 0
19 0 0
19.1 0 0
19.2 0 0
19.3 0 0
19.4 0 0
19.5 0 0
19.6 0 0
19.7 0 0
19.8 0 0
19.9 0 0
20 0 0
20.1 0 0
20.2 0 0
20.3 0 0
20.4 0 0
20.5 0 0
20.6 0 0
20.7 0 0
20.8 0 0
20.9 0 0
21 0 0
21.1 0 0
21.2 0 0
21.3 0 0
21.4 0 0
21.5 0 0
21.6 0 0
21.7 0 0
21.8 0 0
21.9 0 0
22 0 0
22.1 0 0
22.2 0 0
22.3 0 0
22.4 0 0
22.5 0 0
22.6 0 0
22.7 0 0
22.8 0 0
22.9 0 0
23 0 0
23.1 0 0
23.2 0 0
23.3 0 0
23.4 0 0
23.5 0 0
23.6 0 0
23.7 0 0
23.8 0 0
23.9 0 0
24 0 0
24.1 0 0
24.2 0 0
24.3 0 0
24.4 0 0
24.5 0 0
24.6 0 0
24.7 0 0
24.8 0 0
24.9 0 0
25 0 0
25.1 0 0
25.2 0 0
25.3 0 0
25.4 0 0
25.5 0 0
25.6 0 0
25.7 0 0
25.8 0 0
25.9 0 0
26 0 0
26.1 0 0
26.2 0 0
26.3 0 0
26.4 0 0
26.5 0 0
26.6 0 0
26.7 0 0
26.8 0 0
26.9 0 0
27 0 0
27.1 0 0
27.2 0 0
27.3 0 0
27.4 0 0
27.5 0 0
27.6 0 0
27.7 0 0
27.8 0 0
27.9 0 0
28 0 0
28.1 0 0
28.2 0 0
28.3 0 0
28.4 0 0
28.5 0 0
28.6 0 0
28.7 0 0
28.8 0 0
28.9 0 0
29 0 0
29.1 0 0
29.2 0 0
29.3 0 0
29.4 0 0
29.5 0 0
29.6 0 0
29.7 0 0
29.8 0 0
29.9 0 0
30 0 0
30.1 0 0
30.2 0 0
30.3 0 0
30.4 0 0
30.5 0 0
30.6 0 0
30.7 0 0
30.8 0 0
30.9 0 0
31 0 0
31.1 0 0
31.2 0 0
31.3 0 0
31.4 0 0
31.5 0 0
31.6 0 0
31.7 0 0
31.8 0 0
31.9 0 0
32 0 0
32.1 0 0
32.2 0 0
32.3 0 0
32.4 0 0
32.5 0 0
32.6 0 0
32.7 0 0
32.8 0 0
32.9 0 0
33 0 0
33.1 0 0
33.2 0 0
33.3 0 0
33.4 0 0
33.5 0 0
33.6 0 0
33.7 0 0
33.8 0 0
33.9 0 0
34 0 0
34.1 0 0
34.2 0 0
34.3 0 0
34.4 0 0
34.5 0 0
34.6 0 0
34.7 0 0
34.8 0 0
34.9 0 0
35 0 0
35.1 0 0
35.2 0 0
35.3 0 0
35.4 0 0
35.5 0 0
35.6 0 0
35.7 0 0
35.8 0 0
35.9 0 0
36 0 0
36.1 0 0
36.2 0 0
36.3 0 0
36.4 0 0
36.5 0 0
36.6 0 0
36.7 0 0
36.8 0 0
36.9 0 0
37 0 0
37.1 0 0
37.2 0 0
37.3 0 0
37.4 0 0
37.5 0 0
37.6 0 0
37.7 0 0
37.8 0 0
37.9 0 0
38 0 0
38.1 0 0
38.2 0 0
38.3 0 0
38.4 0 0
38.5 0 0
38.6 0 0
38.7 0 0
38.8 0 0
38.9 0 0
39 0 0
39.1 0 0
39.2 0 0
39.3 0 0
39.4 0 0
39.5 0 0
39.6 0 0
39.7 0 0
39.8 0 0
39.9 0 0
40 0 0
40.1 0 0
40.2 0 0
40.3 0 0
40.4 0 0
40.5 0 0
40.6 0 0
40.7 0 0
40.8 0 0
40.9 0 0
41 0 0
41.1 0 0
41.2 0 0
41.3 0 0
41.4 0 0
41.5 0 0
41.6 0 0
41.7 0 0
41.8 0 0
41.9 0 0
42 0 0
42.1 0 0
42.2 0 0
42.3 0 0
42.4 0 0
42.5 0 0
42.6 0 0
42.7 0 0
42.8 0 0
42.9 0 0
43 0 0
43.1 0 0
43.2 0 0
43.3 0 0
43.4 0 0
43.5 0 0
43.6 0 0
43.7 0 0
43.8 0 0
43.9 0 0
44 0 0
44.1 0 0
44.2 0 0
44.3 0 0
44.4 0 0
44.5 0 0
44.6 0 0
44.7 0 0
44.8 0 0
44.9 0 0
45 0 0
45.1 0 0
45.2 0 0
45.3 0 0
45.4 0 0
45.5 0 0
45.6 0 0
45.7 0 0
45.8 0 0
45.9 0 0
46 0 0
46.1 0 0
46.2 0 0
46.3 0 0
46.4 0 0
46.5 0 0
46.6 0 0
46.7 0 0
46.8 0 0
46.9 0 0
47 0 0
47.1 0 0
47.2 0 0
47.3 0 0
47.4 0 0
47.5 0 0
47.6 0 0
47.7 0 0
47.8 0 0
47.9 0 0
48 0 0
48.1 0 0
48.2 0 0
48.3 0 0
48.4 0 0
48.5 0 0
48.6 0 0
48.7 0 0
48.8 0 0
48.9 0 0
49 0 0
49.1 0 0
49.2 0 0
49.3 0 0
49.4 0 0
49.5 0 0
49.6 0 0
49.7 0 0
49.8 0 0
49.9 0 0
50 0 0
50.1 0 0
50.2 0 0
50.3 0 0
50.4 0 0
50.5 0 0
50.6 0 0
50.7 0 0
50.8 0 0
50.9 0 0
51 0 0
51.1 0 0
51.2 0 0
51.3 0 0
51.4 0 0
51.5 0 0
51.6 0 0
51.7 0 0
51.8 0 0
51.9 0 0
52 0 0
52.1 0 0
52.2 0 0
52.3 0 0
52.4 0 0
52.5 0 0
52.6 0 0
52.7 0 0
52.8 0 0
52.9 0 0
53 0 0
53.1 0 0
53.2 0 0
53.3 0 0
53.4 0 0
53.5 0 0
53.6 0 0
53.7 0 0
53.8 0 0
53.9 0 0
54 0 0
54.1 0 0
54.2 0 0
54.3 0 0
54.4 0 0
54.5 0 0
54.6 0 0
54.7 0 0
54.8 0 0
54.9 0 0
55 0 0
55.1 0 0
55.2 0 0
55.3 0 0
55.4 0 0
55.5 0 0
55.6 0 0
55.7 0 0
55.8 0 0
55.9 0 0
56 0 0
56.1 0 0
56.2 0 0
56.3 0 0
56.4 0 0
56.5 0 0
56.6 0 0
56.7 0 0
56.8 0 0
56.9 0 0
57 0 0
57.1 0 0
57.2 0 0
57.3 0 0
57.4 0 0
57.5 0 0
57.6 0 0
57.7 0 0
57.8 0 0
57.9 0 0
58 0 0
58.1 0 0
58.2 0 0
58.3 0 0
58.4 0 0
58.5 0 0
58.6 0 0
58.7 0 0
58.8 0 0
58.9 0 0
59 0 0
59.1 0 0
59.2 0 0
59.3 0 0
59.4 0 0
59.5 0 0
59.6 0 0
59.7 0 0
59.8 0 0
59.9 0 0
60 0 0
60.1 0 0
60.2 0 0
60.3 0 0
60.4 0 0
60.5 0 0
60.6 0 0
60.7 0 0
60.8 0 0
60.9 0 0
61 0 0
61.1 0 0
61.2 0 0
61.3 0 0
61.4 0 0
61.5 0 0
61.6 0 0
61.7 0 0
61.8 0 0
61.9 0 0
62 0 0
62.1 0 0
62.2 0 0
62.3 0 0
62.4 0 0
62.5 0 0
62.6 0 0
62.7 0 0
62.8 0 0
62.9 0 0
63 0 0
63.1 0 0
63.2 0 0
63.3 0 0
63.4 0 0
63.5 0 0
63.6 0 0
63.7 0 0
63.8 0 0
63.9 0 0
64 0 0
64.1 0 0
64.2 0 0
64.3 0 0
64.4 0 0
64.5 0 0
64.6 0 0
64.7 0 0
64.8 0 0
64.9 0 0
65 0 0
65.1 0 0
65.2 0 0
65.3 0 0
65.4 0 0
65.5 0 0
65.6 0 0
65.7 0 0
65.8 0 0
65.9 0 0
66 0 0
66.1 0 0
66.2 0 0
66.3 0 0
66.4 0 0
66.5 0 0
66.6 0 0
66.7 0 0
66.8 0 0
66.9 0 0
67 0 0
67.1 0 0
67.2 0 0
67.3 0 0
67.4 0 0
67.5 0 0
67.6 0 0
67.7 0 0
67.8 0 0
67.9 0 0
68 0 0
68.1 0 0
68.2 0 0
68.3 0 0
68.4 0 0
68.5 0 0
68.6 0 0
68.7 0 0
68.8 0 0
68.9 0 0
69 0 0
69.1 0 0
69.2 0 0
69.3 0 0
69.4 0 0
69.5 0 0
69.6 0 0
69.7 0 0
69.8 0 0
69.9 0 0
70 0 0
70.1 0 0
70.2 0 0
70.3 0 0
70.4 0 0
70.5 0 0
70.6 0 0
70.7 0 0
70.8 0 0
70.9 0 0
71 0 0
71.1 0 0
71.2 0 0
71.3 0 0
71.4 0 0
71.5 0 0
71.6 0 0
71.7 0 0
71.8 0 0
71.9 0 0
72 0 0
72.1 0 0
72.2 0 0
72.3 0 0
72.4 0 0
72.5 0 0
72.6 0 0
72.7 0 0
72.8 0 0
72.9 0 0
73 0 0
73.1 0 0
73.2 0 0
73.3 0 0
73.4 0 0
73.5 0 0
73.6 0 0
73.7 0 0
73.8 0 0
73.9 0 0
74 0 0
74.1 0 0
74.2 0 0
74.3 0 0
74.4 0 0
74.5 0 0
74.6 0 0
74.7 0 0
74.8 0 0
74.9 0 0
75 0 0
75.1 0 0
75.2 0 0
75.3 0 0
75.4 0 0
75.5 0 0
75.6 0 0
75.7 0 0
75.8 0 0
75.9 0 0
76 0 0
76.1 0 0
76.2 0 0
76.3 0 0
76.4 0 0
76.5 0 0
76.6 0 0
76.7 0 0
76.8 0 0
76.9 0 0
77 0 0
77.1 0 0
77.2 0 0
77.3 0 0
77.4 0 0
77.5 0 0
77.6 0 0
77.7 0 0
77.8 0 0
77.9 0 0
78 0 0
78.1 0 0
78.2 0 0
78.3 0 0
78.4 0 0
78.5 0 0
78.6 0 0
78.7 0 0
78.8 0 0
78.9 0 0
79 0 0
79.1 0 0
79.2 0 0
79.3 0 0
79.4 0 0
79.5 0 0
79.6 0 0
79.7 0 0
79.8 0 0
79.9 0 0
80 0 0
80.1 0 0
80.2 0 0
80.3 0 0
80.4 0 0
80.5 0 0
80.6 0 0
80.7 0 0
80.8 0 0
80.9 0 0
81 0 0
81.1 0 0
81.2 0 0
81.3 0 0
81.4 0 0
81.5 0 0
81.6 0 0
81.7 0 0
81.8 0 0
81.9 0 0
82 0 0
82.1 0 0
82.2 0 0
82.3 0 0
82.4 0 0
82.5 0 0
82.6 0 0
82.7 0 0
82.8 0 0
82.9 0 0
83 0 0
83.1 0 0
83.2 0 0
83.3 0 0
83.4 0 0
83.5 0 0
83.6 0 0
83.7 0 0
83.8 0 0
83.9 0 0
84 0 0
84.1 0 0
84.2 0 0
84.3 0 0
84.4 0 0
84.5 0 0
84.6 0 0
84.7 0 0
84.8 0 0
84.9 0 0
85 0 0
85.1 0 0
85.2 0 0
85.3 0 0
85.4 0 0
85.5 0 0
85.6 0 0
85.7 0 0
85.8 0 0
85.9 0 0
86 0 0
86.1 0 0
86.2 0 0
86.3 0 0
86.4 0 0
86.5 0 0
86.6 0 0
86.7 0 0
86.8 0 0
86.9 0 0
87 0 0
87.1 0 0
87.2 0 0
87.3 0 0
87.4 0 0
87.5 0 0
87.6 0 0
87.7 0 0
87.8 0 0
87.9 0 0
88 0 0
88.1 0 0
88.2 0 0
88.3 0 0
88.4 0 0
88.5 0 0
88.6 0 0
88.7 0 0
88.8 0 0
88.9 0 0
89 0 0
89.1 0 0
89.2 0 0
89.3 0 0
89.4 0 0
89.5 0 0
89.6 0 0
89.7 0 0
89.8 0 0
89.9 0 0
90 0 0
90.1 0 0
90.2 0 0
90.3 0 0
90.4 0 0
90.5 0 0
90.6 0 0
90.7 0 0
90.8 0 0
90.9 0 0
91 0 0
91.1 0 0
91.2 0 0
91.3 0 0
91.4 0 0
91.5 0 0
91.6 0 0
91.7 0 0
91.8 0 0
91.9 0 0
92 0 0
92.1 0 0
92.2 0 0
92.3 0 0
92.4 0 0
92.5 0 0
92.6 0 0
92.7 0 0
92.8 0 0
92.9 0 0
93 0 0
93.1 0 0
93.2 0 0
93.3 0 0
93.4 0 0
93.5 0 0
93.6 0 0
93.7 0 0
93.8 0 0
93.9 0 0
94 0 0
94.1 0 0
94.2 0 0
94.3 0 0
94.4 0 0
94.5 0 0
94.6 0 0
94.7 0 0
94.8 0 0
94.9 0 0
95 0 0
95.1 0 0
95.2 0 0
95.3 0 0
95.4 0 0
95.5 0 0
95.6 0 0
95.7 0 0
95.8 0 0
95.9 0 0
96 0 0
96.1 0 0
96.2 0 0
96.3 0 0
96.4 0 0
96.5 0 0
96.6 0 0
96.7 0 0
96.8 0 0
96.9 0 0
97 0 0
97.1 0 0
97.2 0 0
97.3 0 0
97.4 0 0
97.5 0 0
97.6 0 0
97.7 0 0
97.8 0 0
97.9 0 0
98 0 0
98.1 0 0
98.2 0 0
98.3 0 0
98.4 0 0
98.5 0 0
98.6 0 0
98.7 0 0
98.8 0 0
98.9 0 0
99 0 0
99.1 0 0
99.2 0 0
99.3 0 0
99.4 0 0
99.5 0 0
99.6 0 0
99.7 0 0
99.8 0 0
99.9 0 0
100 0 0
100.1 0 0
100.2 0 0
100.3 0 0
100.4 0 0
100.5 0 0
100.6 0 0
100.7 0 0
100.8 0 0
100.9 0 0
101 0 0
101.1 0 0
101.2 0 0
101.3 0 0
101.4 0 0
101.5 0 0
101.6 0 0
101.7 0 0
101.8 0 0
101.9 0 0
102 0 0
102.1 0 0
102.2 0 0
102.3 0 0
102.4 0 0
102.5 0 0
102.6 0 0
102.7 0 0
102.8 0 0
102.9 0 0
103 0 0
103.1 0 0
103.2 0 0
103.3 0 0
103.4 0 0
103.5 0 0
103.6 0 0
103.7 0 0
103.8 0 0
103.9 0 0
104 0 0
104.1 0 0
104.2 0 0
104.3 0 0
104.4 0 0
104.5 0 0
104.6 0 0
104.7 0 0
104.8 0 0
104.9 0 0
105 0 0
105.1 0 0
105.2 0 0
105.3 0 0
105.4 0 0
105.5 0 0
105.6 0 0
105.7 0 0
105.8 0 0
105.9 0 0
106 0 0
106.1 0 0
106.2 0 0
106.3 0 0
106.4 0 0
106.5 0 0
106.6 0 0
106.7 0 0
106.8 0 0
106.9 0 0
107 0 0
107.1 0 0
107.2 0 0
107.3 0 0
107.4 0 0
107.5 0 0
107.6 0 0
107.7 0 0
107.8 0 0
107.9 0 0
108 0 0
108.1 0 0
108.2 0 0
108.3 0 0
108.4 0 0
108.5 0 0
108.6 0 0
108.7 0 0
108.8 0 0
108.9 0 0
109 0 0
109.1 0 0
109.2 0 0
109.3 0 0
109.4 0 0
109.5 0 0
109.6 0 0
109.7 0 0
109.8 0 0
109.9 0 0
110 0 0
110.1 0 0
110.2 0 0
110.3 0 0
110.4 0 0
110.5 0 0
110.6 0 0
110.7 0 0
110.8 0 0
110.9 0 0
111 0 0
111.1 0 0
111.2 0 0
111.3 0 0
111.4 0 0
111.5 0 0
111.6 0 0
111.7 0 0
111.8 0 0
111.9 0 0
112 0 0
[...]
POINT_DATA 83304

SCALARS pressure float 1
LOOKUP_TABLE default
0
0
0
0
0
0
0
0
0
0
0
0
0
0
0
0
0
0
0
0
0
0
0
0
0
0
0
0
0
0
0
0
0
0
0
0
0
0
0
0
0
0
0
0
0
0
0
0
0
0
0
0
0
0
0
0
0
0
0
0
0
0
0
0
0
0
0
0
0
0
0
0
0
0
0
0
0
0
0
0
0
0
0
0
0
0
0
0
0
0
0
0
0
0
0
0
0
0
0
0
0
0
0
0
0
0
0
0
0
0
0
0
0
0
0
0
0
0
0
0
0
0
0
0
0
0
0
0
0
0
0
0
0
0
0
0
0
0
0
0
0
0
0
0
0
0
0
0
0
0
0
0
0
0
0
0
0
0
0
0
0
0
0
0
0
0
0
0
0
0
0
0
0
0
0
0
0
0
0
0
0
0
0
0
0
0
0
0
0
0
0
0
0
0
0
0
0
0
0
0
0
0
0
0
0
0
0
0
0
0
0
0
0
0
0
0
0
0
0
0
0
0
0
0
0
0
0
0
0
0
0
0
0
0
0
0
0
0
0
0
0
0
0
0
0
0
0
0
0
0
0
0
0
0
0
0
0
0
0
0
0
0
0
0
0
0
0
0
0
0
0
0
0
0
0
0
0
0
0
0
0
0
0
0
0
0
0
0
0
0
0
0
0
0
0
0
0
0
0
0
0
0
0
0
0
0
0
0
0
0
0
0
0
0
0
0
0
0
0
0
0
0
0
0
0
0
0
0
0
0
0
0
0
0
0
0
0
0
0
0
0
0
0
0
0
0
0
0
0
0
0
0
0
0
0
0
0
0
0
0
0
0
0
0
0
0
0
0
0
0
0
0
0
0
0
0
0
0
0
0
0
0
0
0
0
0
0
0
0
0
0
0
0
0
0
0
0
0
0
0
0
0
0
0
0
0
0
0
0
0
0
0
0
0
0
0
0
0
0
0
0
0
0
0
0
0
0
0
0
0
0
0
0
0
0
0
0
0
0
0
0
0
0
0
0
0
0
0
0
0
0
0
0
0
0
0
0
0
0
0
0
0
0
0
0
0
0
0
0
0
0
0
0
0
0
0
0
0
0
0
0
0
0
0
0
0
0
0
0
0
0
0
0
0
0
0
0
0
0
0
0
0
0
0
0
0
0
0
0
0
0
0
0
0
0
0
0
0
0
0
0
0
0
0
0
0
0
0
0
0
0
0
0
0
0
0
0
0
0
0
0
0
0
0
0
0
0
0
0
0
0
0
0
0
0
0
0
0
0
0
0
0
0
0
0
0
0
0
0
0
0
0
0
0
0
0
0
0
0
0
0
0
0
0
0
0
0
0
0
0
0
0
0
0
0
0
0
0
0
0
0
0
0
0
0
0
0
0
0
0
0
0
0
0
0
0
0
0
0
0
0
0
0
0
0
0
0
0
0
0
0
0
0
0
0
0
0
0
0
0
0
0
0
0
0
0
0
0
0
0
0
0
0
0
0
0
0
0
0
0
0
0
0
0
0
0
0
0
0
0
0
0
0
0
0
0
0
0
0
0
0
0
0
0
0
0
0
0
0
0
0
0
0
0
0
0
0
0
0
0
0
0
0
0
0
0
0
0
0
0
0
0
0
0
0
0
0
0
0
0
0
0
0
0
0
0
0
0
0
0
0
0
0
0
0
0
0
0
0
0
0
0
0
0
0
0
0
0
0
0
0
0
0
0
0
0
0
0
0
0
0
0
0
0
0
0
0
0
0
0
0
0
0
0
0
0
0
0
0
0
0
0
0
0
0
0
0
0
0
0
0
0
0
0
0
0
0
0
0
0
0
0
0
0
0
0
0
0
0
0
0
0
0
0
0
0
0
0
0
0
0
0
0
0
0
0
0
0
0
0
0
0
0
0
0
0
0
0
0
0
0
0
0
0
0
0
0
0
0
0
0
0
0
0
0
0
0
0
0
0
0
0
0
0
0
0
0
0
0
0
0
0
0
0
0
0
0
0
0
0
0
0
0
0
0
0
0
0
0
0
0
0
0
0
0
0
0
0
0
0
0
0
0
0
0
0
0
0
0
0
0
0
0
0
0
0
0
0
0
0
0
0
0
0
0
0
0
0
0
0
0
0
0
0
0
0
0
0
0
0
0
0
0
0
0
0
0
0
0
0
0
0
0
0
0
0
0
0
0
0
0
0
0
0
0
0
0
0
0
0
0
0
0
0
0
0
0
0
0
0
0
0
0
0
0
0
0
0
0
0
0
0
0
0
0
0
0
0
0
0
0
0
0
0
0
0
0
0
0
0
0
0
0
0
0
0
0
0
0
0
0
0
0
0
0
0
0
0
0
0
0
0
0
0
0
0
0
0
0
0
0
0
0
0
0
0
0
0
0
0
0
0
0
0
0
0
0
0
0
0
0
0
0
0
0
0
0
0
0
0
0
0
0
0
0
0
0
0
0
0
0
0
0
0
0
0
0
0
0
0
0
0
0
0
0
0
0
0
0
0
0
0
0
0
0
0
0
0
0
0
0
0
0
0
0
0
0
0
0
0
0
0
0
0
0
0
0
0
0
0
0
0
0
0
0
0
0
0
0
0
0
0
0
0
0
0
0
0
0
0
0
0
0
0
0
0
0
0
0
0
0
0
0
0
0
0
0
0
0
0
0
0
0
0
0
0
0
0
0
0
0
0
0
0
0
0
0
0
0
0
0
0
0
0
0
0
0
0
0
0
0
0
0
0
0
0
0
0
0
0
0
0
0
0
0
0
0
0
0
0
0
0
0
0
0
0
0
0
0
0
0
0
0
0
0
0
0
0
0
0
0
0
0
0
0
0
0
0
0
0
0
0
0
0
0
0
0
0
0
0
0
0
0
0
0
0
0
0
0
0
0
0
0
0
0
0
0
0
0
0
0
0
0
0
0
0
0
0
0
0
0
0
0
0
0
0
0
0
0
0
0
0
0
0
0
0
0
0
0
0
0
0
0
0
0
0
0
0
0
0
0
0
0
0
0
0
0
0
0
0
0
0
0
0
0
0
0
0
0
0
0
0
0
0
0
0
0
0
0
0
0
0
0
0
0
0
0
0
0
0
0
0
0
0
0
0
0
0
0
0
0
0
0
0
0
0
0
0
0
0
0
0
0
0
0
0
0
0
0
0
0
0
0
0
0
0
0
0
0
0
0
0
0
0
0
0
0
0
0
0
0
0
0
0
0
0
0
0
0
0
0
0
0
0
0
0
0
0
0
0
0
0
0
0
0
0
0
0
0
0
0
0
0
0
0
0
0
0
0
0
0
0
0
0
0
0
0
0
0
0
0
0
0
0
0
0
0
0
0
0
0
0
0
0
0
0
0
0
0
0
0
0
0
0
0
0
0
0
0
0
0
0
0
0
0
0
0
0
0
0
0
0
0
0
0
0
0
0
0
0
0
0
0
0
0
0
0
0
0
0
0
0
0
0
0
0
0
0
0
0
0
0
0
0
0
0
0
0
0
0
0
0
0
0
0
0
0
0
0
0
0
0
0
0
0
0
0
0
0
0
0
0
0
0
0
0
0
0
0
0
0
0
0
0
0
0
0
0
0
0
0
0
0
0
0
0
0
0
0
0
0
0
0
0
0
0
0
0
0
0
0
0
0
0.0776415
0.052903
0.0436505
0.0357426
0.03048
0.0271088
0.0248019
0.023116
0.0218008
0.0207277
0.0198235
0.0190436
0.0183596
0.0177519
0.0172066
0.0167134
0.0162643
0.0158532
0.0154749
0.0151254
0.0148012
0.0144993
0.0142174
0.0139533
0.0137051
0.0134714
0.0132506
0.0130416
0.0128433
0.0126548
0.0124753
0.0123039
0.0121401
0.0119832
0.0118327
0.0116882
0.0115492
0.0114154
0.0112863
0.0111618
0.0110415
0.0109251
0.0108125
0.0107035
0.010598
0.0104958
0.0103967
0.0103009
0.0102081
0.0101184
0.0100316
0.00994771
0.00986652
0.00978777
0.00971105
0.00963576
0.00956113
0.00948613
0.00940954
0.00932999
0.00924604
0.00915636
0.00905996
0.00895648
0.00884651
0.00873198
0.00861651
0.00850563
0.00840697
0.00833008
0.00828607
0.00828681
0.00834379
0.00846658
0.00866095
0.0089269
0.00925648
0.00963197
0.0100244
0.0103924
0.0106829
0.0108321
0.0107685
0.0104187
0.00971553
0.00860825
0.0070729
0.00512641
0.00284275
0.000365265
-0.00208859
-0.00424341
-0.00580092
-0.00648096
-0.00605695
-0.00437934
-0.00138902
0.00289031
0.0083652
0.014887
0.0222731
0.0303226
0.03883
0.0475897
0.0563913
0.06503
0.0733218
0.0810709
0.0880493
0.094038
0.0988847
0.10251
0.104868
0.105924
0.105668
0.104133
0.101407
0.0976224
0.0929487
0.0875765
0.0817069
0.0755396
0.0692597
0.0630281
0.0569754
0.0512001
0.0457711
0.0407307
0.0361
0.0318833
0.0280724
0.0246502
0.021594
0.0188775
0.0164727
0.0143514
0.0124857
0.0108492
0.00941694
0.00816596
0.00707519
0.00612553
0.00529982
0.00458269
0.00396051
0.00342118
0.00295403
0.00254968
0.0021999
0.00189751
0.00163619
0.00141048
0.0012156
0.0010474
0.000902268
0.000777086
0.000669139
0.000576077
0.000495868
0.000426752
0.000367207
0.000315918
0.000271749
0.000233718
0.000200978
0.000172798
0.000148547
0.00012768
0.000109727
9.4285e-05
8.10039e-05
6.95832e-05
5.97638e-05
5.13225e-05
4.40668e-05
3.78312e-05
3.2473e-05
2.78695e-05
2.39149e-05
2.05183e-05
1.76014e-05
1.50967e-05
1.29465e-05
1.11007e-05
9.51651e-06
8.15708e-06
6.99069e-06
5.99009e-06
5.13184e-06
4.39581e-06
3.76469e-06
3.22363e-06
2.75983e-06
2.36235e-06
2.02175e-06
1.72993e-06
1.47997e-06
1.26588e-06
1.08256e-06
9.25607e-07
7.91254e-07
6.76267e-07
5.77872e-07
4.93689e-07
4.2168e-07
3.60096e-07
3.07439e-07
2.62424e-07
2.2395e-07
1.91074e-07
1.6299e-07
1.39008e-07
1.18539e-07
1.01077e-07
8.61883e-08
7.34938e-08
6.2667e-08
5.34269e-08
4.55352e-08
3.87917e-08
3.30281e-08
2.80989e-08
2.38735e-08
2.0232e-08
1.70686e-08
1.43007e-08
1.18811e-08
9.80389e-09
8.09918e-09
6.81083e-09
5.96302e-09
5.52505e-09
5.38932e-09
5.37471e-09
5.26037e-09
4.84345e-09
4.00371e-09
2.75272e-09
1.24759e-09
-2.40331e-10
-1.3966e-09
-1.95504e-09
-1.78161e-09
-9.23432e-10
3.93743e-10
1.82092e-09
2.9783e-09
3.5575e-09
3.40363e-09
2.5534e-09
1.2198e-09
-2.70484e-10
-1.56712e-09
-2.38712e-09
-2.58187e-09
-2.16388e-09
-1.28969e-09
-2.0745e-10
8.13094e-10
1.54826e-09
1.86842e-09
1.75657e-09
1.29683e-09
6.40028e-10
-4.16821e-11
-5.98049e-10
-9.31673e-10
-1.01116e-09
-8.66445e-10
-5.70712e-10
-2.15719e-10
1.12286e-10
3.50537e-10
4.68651e-10
4.68322e-10
3.75893e-10
2.31091e-10
7.53901e-11
-5.72883e-11
-1.45981e-10
-1.83942e-10
-1.76507e-10
-1.36888e-10
-8.13704e-11
-2.51208e-11
2.06489e-11
4.99041e-11
6.15856e-11
5.84221e-11
4.52922e-11
2.76155e-11
1.01032e-11
-3.97363e-12
-1.30014e-11
-1.68371e-11
-1.63813e-11
-1.30745e-11
-8.44329e-12
-3.77543e-12
5.31079e-14
2.61264e-12
3.85487e-12
3.99459e-12
3.37978e-12
2.3799e-12
1.30839e-12
3.82917e-13
-2.82066e-13
-6.60298e-13
-7.87179e-13
-7.31018e-13
-5.68452e-13
-3.6725e-13
-1.77118e-13
-2.72898e-14
7.11508e-14
1.20453e-13
1.30728e-13
1.1512e-13
8.6273e-14
5.42536e-14
2.57585e-14
4.24295e-15
-9.41252e-15
-1.6035e-14
-1.73313e-14
-1.52345e-14
-1.14748e-14
-7.36066e-15
-3.72425e-15
-9.73644e-16
8.01979e-16
1.71489e-15
1.97525e-15
1.81408e-15
1.43508e-15
9.91699e-16
5.82659e-16
2.58772e-16
3.50586e-17
-9.62869e-17
-1.54679e-16
-1.6286e-16
-1.41689e-16
-1.07541e-16
-7.16105e-17
-4.03866e-17
-1.66996e-17
-9.02996e-19
8.06667e-18
1.1877e-17
1.22567e-17
1.06898e-17
8.29012e-18
5.79349e-18
3.61455e-18
1.92934e-18
7.5787e-19
3.32344e-20
-3.47598e-19
-4.91063e-19
-4.89078e-19
-4.11822e-19
-3.07333e-19
-2.04722e-19
-1.18797e-19
-5.46802e-20
-1.16997e-20
1.37028e-20
2.60304e-20
2.95869e-20
2.79208e-20
2.36562e-20
1.8548e-20
1.36412e-20
9.46075e-21
6.18559e-21
3.78977e-21
2.14456e-21
1.08575e-21
4.53196e-22
1.10442e-22
-4.85924e-23
-1.00449e-22
-9.6637e-23
-6.93379e-23
-3.69069e-23
-8.49323e-24
1.24229e-23
2.5525e-23
3.20104e-23
3.35898e-23
3.19404e-23
2.84553e-23
2.41689e-23
1.97767e-23
1.56972e-23
1.21428e-23
9.18654e-24
6.81491e-24
4.96742e-24
3.56346e-24
2.51921e-24
1.75704e-24
1.21013e-24
8.23673e-25
5.54429e-25
3.69286e-25
2.43517e-25
1.59054e-25
1.0294e-25
6.60408e-26
4.20113e-26
2.6508e-26
1.65944e-26
1.03093e-26
6.35738e-27
3.89223e-27
2.36633e-27
1.42885e-27
8.57041e-28
5.10731e-28
3.02426e-28
1.77969e-28
1.04092e-28
6.052e-29
3.49811e-29
2.01033e-29
1.14881e-29
6.52848e-30
3.68982e-30
2.07425e-30
1.1599e-30
6.45227e-31
3.57087e-31
1.96623e-31
1.07727e-31
5.87322e-32
3.1865e-32
1.72054e-32
9.24601e-33
4.94548e-33
2.633e-33
1.39542e-33
7.36192e-34
3.86663e-34
2.02185e-34
1.0526e-34
5.4562e-35
2.81613e-35
1.44733e-35
7.40714e-36
3.77505e-36
1.91601e-36
9.68488e-37
4.87559e-37
2.44462e-37
1.22085e-37
6.07286e-38
3.00899e-38
1.4851e-38
7.30157e-39
3.57612e-39
1.74484e-39
8.4813e-40
4.10717e-40
1.98157e-40
9.52516e-41
4.56189e-41
2.1769e-41
1.03505e-41
4.90377e-42
2.315e-42
1.08901e-42
5.10493e-43
2.38468e-43
1.1101e-43
5.14988e-44
2.38092e-44
1.09702e-44
5.03746e-45
2.30542e-45
1.05156e-45
4.78055e-46
2.16613e-46
9.78283e-47
4.40378e-47
1.97595e-47
8.83739e-48
3.93982e-48
1.75082e-48
7.75579e-49
3.42482e-49
1.5076e-49
6.61566e-50
2.89408e-50
1.26213e-50
5.4873e-51
2.37839e-51
1.02774e-51
4.42759e-52
1.90169e-52
8.1434e-53
3.47676e-53
1.47996e-53
6.28116e-54
2.65797e-54
1.12146e-54
4.71793e-55
1.97904e-55
8.27756e-56
3.45222e-56
1.43565e-56
5.95329e-57
2.46168e-57
1.01502e-57
4.17347e-58
1.71119e-58
6.99659e-59
2.85276e-59
1.15995e-59
4.70345e-60
1.90195e-60
7.66993e-61
3.08461e-61
1.23717e-61
4.94862e-62
1.9741e-62
7.85394e-63
3.11634e-63
1.23324e-63
4.86739e-64
1.91601e-64
7.52238e-65
2.94561e-65
1.15043e-65
4.48139e-66
1.74117e-66
6.74753e-67
2.60815e-67
1.00555e-67
3.86694e-68
1.48328e-68
5.67516e-69
2.16588e-69
8.24509e-70
3.13088e-70
1.1859e-70
4.48075e-71
1.68877e-71
6.34917e-72
2.38117e-72
8.90829e-73
3.32456e-73
1.23769e-73
4.59656e-74
1.70294e-74
6.2938e-75
2.32049e-75
8.53499e-76
3.13173e-76
1.14638e-76
4.18639e-77
1.52517e-77
5.54332e-78
2.01e-78
7.27114e-79
2.62416e-79
9.44848e-80
3.39408e-80
1.21639e-80
4.34929e-81
1.55153e-81
5.5221e-82
1.96087e-82
6.94707e-83
2.45563e-83
8.66036e-84
3.04736e-84
1.06987e-84
3.74762e-85
1.3098e-85
4.56752e-86
1.58922e-86
5.51723e-87
1.91114e-87
6.6054e-88
2.27796e-88
7.83857e-89
2.69136e-89
9.22051e-90
3.15201e-90
1.07516e-90
3.65945e-91
1.24284e-91
4.21189e-92
1.4243e-92
4.80607e-93
1.61826e-93
5.4372e-94
1.82296e-94
6.09892e-95
2.03614e-95
6.78333e-96
2.25507e-96
7.48106e-97
2.47658e-97
8.1815e-98
2.69715e-98
8.873e-99
2.91295e-99
9.54322e-100
3.12002e-100
1.01794e-100
3.31433e-101
1.0769e-101
3.49193e-102
1.12997e-102
3.64908e-103
1.17603e-103
3.78241e-104
1.21406e-104
3.88898e-105
1.24324e-105
3.96646e-106
1.26293e-106
4.01317e-107
1.27271e-107
4.02815e-108
1.27239e-108
4.01118e-109
1.26202e-109
3.96282e-110
1.2419e-110
3.88434e-111
1.21254e-111
3.7777e-112
1.17466e-112
3.64544e-113
1.12914e-113
3.4906e-114
1.077e-114
3.3166e-115
1.01938e-115
3.12712e-116
9.57459e-117
2.92595e-117
8.92452e-118
2.71692e-118
8.2555e-119
2.50373e-119
7.57898e-120
2.28989e-120
6.90558e-121
2.0786e-121
6.24492e-122
1.87271e-122
5.60536e-123
1.67466e-123
4.99395e-124
1.48647e-124
4.41635e-125
1.30969e-125
3.8768e-126
1.14546e-126
3.37822e-127
9.9449e-128
2.92226e-128
8.57129e-129
2.50947e-129
7.33379e-130
2.13938e-130
6.2296e-131
1.81071e-131
5.25358e-132
1.52153e-132
4.3987e-133
1.26938e-133
3.65663e-134
1.05147e-134
3.01812e-135
8.64781e-136
2.47346e-136
7.0621e-137
2.01278e-137
5.72653e-138
1.62638e-138
4.61095e-139
1.30496e-139
3.68674e-140
1.03975e-140
2.92724e-141
8.22683e-142
2.30809e-142
6.46425e-143
1.80731e-143
5.04425e-144
1.40544e-144
3.90912e-145
1.08543e-145
3.00869e-146
8.32551e-147
2.29987e-147
6.34239e-148
1.74608e-148
4.79886e-149
1.31666e-149
3.60642e-150
9.86153e-151
2.69203e-151
7.3364e-152
1.99598e-152
5.42128e-153
1.47001e-153
3.97933e-154
1.07542e-154
2.90148e-155
7.81521e-156
2.10155e-156
5.64183e-157
1.5121e-157
4.046e-158
1.08082e-158
2.88249e-159
7.6748e-160
2.04012e-160
5.41416e-161
1.43449e-161
3.79451e-162
1.00209e-162
2.64211e-163
6.95488e-164
1.82778e-164
4.79576e-165
1.25629e-165
3.28564e-166
8.57929e-167
2.23658e-167
5.82133e-168
1.51274e-168
3.92473e-169
1.01663e-169
2.62921e-170
6.78882e-171
1.75015e-171
4.5047e-172
1.15763e-172
2.97021e-173
7.60884e-174
1.9461e-174
4.96969e-175
1.2671e-175
3.22561e-176
8.19848e-177
2.08054e-177
5.27156e-178
1.3336e-178
3.36851e-179
8.49524e-180
2.13914e-180
5.37812e-181
1.35005e-181
3.38377e-182
8.46799e-183
2.11589e-183
5.27883e-184
1.31497e-184
3.27062e-185
8.1223e-186
2.01403e-186
4.98643e-187
1.23269e-187
3.04268e-188
7.49895e-189
1.84538e-189
4.53436e-190
1.11247e-190
2.72526e-191
6.66609e-192
1.6281e-192
3.97046e-193
9.66828e-194
2.35075e-194
5.7071e-195
1.38349e-195
3.3488e-196
8.09387e-197
1.95334e-197
4.70712e-198
1.13263e-198
2.72133e-199
6.52876e-200
1.56401e-200
3.74119e-201
8.93597e-202
2.13125e-202
5.07565e-203
1.20701e-203
2.86614e-204
6.79593e-205
1.60904e-205
3.80411e-206
8.98066e-207
2.11706e-207
4.98342e-208
1.17137e-208
2.74936e-209
6.44382e-210
1.50809e-210
3.52443e-211
8.22479e-212
1.91663e-212
4.45993e-213
1.03633e-213
2.40461e-214
5.57151e-215
1.28909e-215
2.97833e-216
6.87142e-217
1.58308e-217
3.64204e-218
8.36705e-219
1.91949e-219
4.39729e-220
1.00594e-220
2.298e-221
5.24222e-222
1.19418e-222
2.71655e-223
6.17103e-224
1.39988e-224
3.17114e-225
7.17356e-226
1.6205e-226
3.65562e-227
8.23511e-228
1.85257e-228
4.16178e-229
9.33646e-230
2.09163e-230
4.6794e-231
1.04543e-231
2.33241e-232
5.19655e-233
1.15619e-233
2.56892e-234
5.70003e-235
1.26302e-235
2.79478e-236
6.17583e-237
1.36286e-237
3.00342e-238
6.60985e-239
1.45271e-239
3.18843e-240
6.98855e-241
1.52972e-241
3.34386e-242
7.29963e-243
1.59136e-243
3.4646e-244
7.53276e-245
1.63558e-245
3.54658e-246
7.68009e-247
1.6609e-247
3.58707e-248
7.73674e-249
1.66647e-249
3.58478e-250
7.70103e-251
1.65219e-251
3.53994e-252
7.57457e-253
1.61863e-253
3.45431e-254
7.36216e-255
1.56703e-255
3.33103e-256
7.07146e-257
1.49924e-257
3.17442e-258
6.71258e-259
1.41758e-259
2.98978e-260
6.29744e-261
1.32472e-261
2.78305e-262
5.83919e-263
1.22355e-263
2.56052e-264
5.35146e-265
1.11701e-265
2.32852e-266
4.84778e-267
1.00797e-267
2.09312e-268
4.34092e-269
8.99112e-270
1.8599e-270
3.84245e-271
7.92815e-272
1.63374e-272
3.36231e-273
6.91099e-274
1.4187e-274
2.90864e-275
5.95575e-276
1.21796e-276
2.4876e-277
5.07433e-278
1.03378e-278
2.10343e-279
4.27448e-280
8.67542e-281
1.75854e-281
3.56014e-282
7.19844e-283
1.45367e-283
2.9319e-284
5.90594e-285
1.18819e-285
2.3875e-286
4.79137e-287
9.60361e-288
1.92251e-288
3.84384e-289
7.67579e-290
1.53088e-290
3.04947e-291
6.06694e-292
1.20553e-292
2.39251e-293
4.74233e-294
9.38849e-295
1.85638e-295
3.6661e-296
7.23118e-297
1.42456e-297
2.803e-298
5.50851e-299
1.08122e-299
2.11966e-300
4.15038e-301
8.11674e-302
1.58543e-302
3.09304e-303
6.02695e-304
1.17296e-304
2.28004e-305
4.42668e-306
8.58399e-307
1.66255e-307
3.21617e-308
6.21414e-309
1.19922e-309
2.31152e-310
4.45014e-311
8.55715e-312
1.64348e-312
3.1527e-313
6.04061e-314
1.15601e-314
2.20965e-315
4.2186e-316
8.04446e-317
1.53218e-317
2.91479e-318
5.53853e-319
1.05117e-319
1.99257e-320
3.77466e-321
7.11455e-322
1.28457e-322
1.97626e-323
0
0
0
0
0
0
0
0
0
0
0
0
0
0
0
0
0
0
0
0
0
0
0
0
0
0
0
0
0
0
0
0
0
0
0
0
0
0
0
0
0
0
0
0
0
0
0
0
0
0
0
0
0
0
0
0
0
0
0
0
0
0
0
0
0
0
0
0
0
0
0
0
0
0
0
0
0
0
0
0
0
0
0
0
0
0
0
0
0
0
0
0
0
0
0
0
0
0
0
0
0
0
0
0
0
0
0
0
0
0
0
0
0
0
0
0
0
0
0
0
0
0
0
0
0
0
0
0
0
0
0
0
0
0
0
0
0
0
0
0
0
0
0
0
0
0
0
0
0
0
0
0
0
0
0
0
0
0
0
0
0
0
0
0
0
0
0
0
0
0
0
0
0
0
0
0
0
0
0
0
0
0
0
0
0
0
0
0
0
0
0
0
0
0
0
0
0
0
0
0
0
0
0
0
0
0
0
0
0
0
0
0
0
0
0
0
0
0
0
0
0
0
0
0
0
0
0
0
0
0
0
0
0
0
0
0
0
0
0
0
0
0
0
0
0
0
0
0
0
0
0
0
0
0
0
0
0
0
0
0
0
0
0
0
0
0
0
0
0
0
0
0
0
0
0
0
0
0
0
0
0
0
0
0
0
0
0
0
0
0
0
0
0
0
0
0
0
0
0
0
0
0
0
0
0
0
0
0
0
0
0
0
0
0
0
0
0
0
0
0
0
0
0
0
0
0
0
0
0
0
0
0
0
0
0
0
0
0
0
0
0
0
0
0
0
0
0
0
0
0
0
0
0
0
0
0
0
0
0
0
0
0
0
0
0
0
0
0
0
0
0
0
0
0
0
0
0
0
0
0
0
0
0
0
0
0
0
0
0
0
0
0
0
0
0
0
0
0
0
0
0
0
0
0
0
0
0
0
0
0
0
0
0
0
0
0
0
0
0
0
0
0
0
0
0
0
0
0
0
0
0
0
0
0
0
0
0
0
0
0
0
0
0
0
0
0
0
0
0
0
0
0
0
0
0
0
0
0
0
0
0
0
0
0
0
0
0
0
0
0
0
0
0
0
0
0
0
0
0
0
0
0
0
0
0
0
0
0
0
0
0
0
0
0
0
0
0
0
0
0
0
0
0
0
0
0
0
0
0
0
0
0
0
0
0
0
0
0
0
0
0
0
0
0
0
0
0
0
0
0
0
0
0
0
0
0
0
0
0
0
0
0
0
0
0
0
0
0
0
0
0
0
0
0
0
0
0
0
0
0
0
0
0
0
0
0
0
0
0
0
0
0
0
0
0
0
0
0
0
0
0
0
0
0
0
0
0
0
0
0
0
0
0
0
0
0
0
0
0
0
0
0
0
0
0
0
0
0
0
0
0
0
0
0
0
0
0
0
0
0
0
0
0
0
0
0
0
0.062787
0.0345542
0.0299574
0.025277
0.0221391
0.0200069
0.0184495
0.0172639
0.0163155
0.0155312
0.0148652
0.0142884
0.013781
0.0133294
0.0129237
0.0125563
0.0122216
0.0119149
0.0116326
0.0113716
0.0111293
0.0109037
0.0106929
0.0104953
0.0103096
0.0101346
0.00996925
0.00981272
0.00966418
0.00952294
0.00938837
0.00925994
0.00913713
0.00901952
0.00890672
0.00879837
0.00869416
0.00859379
0.00849702
0.00840362
0.00831338
0.00822612
0.00814168
0.00805992
0.00798075
0.00790405
0.00782976
0.00775784
0.00768823
0.00762091
0.00755583
0.00749292
0.00743208
0.0073731
0.00731571
0.00725948
0.00720383
0.00714801
0.00709112
0.0070321
0.00696985
0.00690332
0.00683168
0.00675454
0.0066722
0.00658592
0.00649822
0.00641305
0.00633597
0.00627403
0.00623559
0.00622969
0.00626527
0.00635003
0.00648902
0.00668311
0.0069274
0.00720975
0.00750962
0.0077973
0.00803405
0.00817288
0.00816066
0.00794182
0.00746383
0.00668467
0.00557985
0.00415242
0.0024462
0.000556366
-0.00136275
-0.00310448
-0.00443506
-0.00512653
-0.00498843
-0.00388936
-0.00177341
0.0013425
0.00538036
0.0102136
0.0156842
0.021616
0.0278301
0.0341481
0.0403936
0.0464034
0.052041
0.0571793
0.0616877
0.0654557
0.068423
0.0705767
0.0719236
0.0724744
0.0722466
0.0712751
0.0696143
0.0673339
0.0645149
0.0612462
0.0576242
0.0537502
0.0497271
0.0456531
0.041617
0.0376934
0.033941
0.0304027
0.0271065
0.0240678
0.0212915
0.0187744
0.0165077
0.0144782
0.0126701
0.0110662
0.00964883
0.0084003
0.00730363
0.00634271
0.00550254
0.00476932
0.00413047
0.00357463
0.00309163
0.00267237
0.0023088
0.00199378
0.00172103
0.00148504
0.00128097
0.00110461
0.000952247
0.000820686
0.000707126
0.000609139
0.000524616
0.000451728
0.00038889
0.000334731
0.000288062
0.000247857
0.000213227
0.000183405
0.000157729
0.000135626
0.000116602
0.000100231
8.61451e-05
7.40277e-05
6.36052e-05
5.46418e-05
4.69345e-05
4.03083e-05
3.46123e-05
2.97168e-05
2.55098e-05
2.1895e-05
1.87896e-05
1.61221e-05
1.38312e-05
1.1864e-05
1.01749e-05
8.72492e-06
7.48036e-06
6.41229e-06
5.49582e-06
4.70955e-06
4.03509e-06
3.45664e-06
2.9606e-06
2.53531e-06
2.17073e-06
1.85824e-06
1.59046e-06
1.36101e-06
1.16446e-06
9.961e-07
8.51924e-07
7.28476e-07
6.22796e-07
5.32341e-07
4.54932e-07
3.88698e-07
3.32036e-07
2.83573e-07
2.4213e-07
2.06699e-07
1.76412e-07
1.50528e-07
1.28412e-07
1.09522e-07
9.33948e-08
7.96356e-08
6.79036e-08
5.7904e-08
4.93802e-08
4.21099e-08
3.59033e-08
3.06015e-08
2.6072e-08
2.22029e-08
1.88943e-08
1.60524e-08
1.35886e-08
1.14253e-08
9.5085e-09
7.81818e-09
6.3727e-09
5.2186e-09
4.4061e-09
3.95586e-09
3.82863e-09
3.91135e-09
4.02927e-09
3.98497e-09
3.615e-09
2.84597e-09
1.72989e-09
4.43419e-10
-7.53136e-10
-1.58733e-09
-1.85583e-09
-1.48989e-09
-5.83523e-10
6.25628e-10
1.81817e-09
2.67922e-09
2.98348e-09
2.65407e-09
1.7789e-09
5.81263e-10
-6.44831e-10
-1.61458e-09
-2.12451e-09
-2.09776e-09
-1.59245e-09
-7.74559e-10
1.34012e-10
9.15762e-10
1.40959e-09
1.54218e-09
1.33346e-09
8.785e-10
3.13835e-10
-2.20908e-10
-6.15861e-10
-8.11095e-10
-8.01449e-10
-6.27638e-10
-3.58351e-10
-6.93823e-11
1.74685e-10
3.32444e-10
3.89825e-10
3.57185e-10
2.61571e-10
1.37024e-10
1.56113e-11
-7.8974e-11
-1.3441e-10
-1.49519e-10
-1.31683e-10
-9.30764e-11
-4.68623e-11
-4.19305e-12
2.75467e-11
4.52156e-11
4.93656e-11
4.30748e-11
3.05918e-11
1.61331e-11
3.04499e-12
-6.60461e-12
-1.20483e-11
-1.35695e-11
-1.21185e-11
-8.91384e-12
-5.11825e-12
-1.6296e-12
1.00691e-12
2.58775e-12
3.17621e-12
3.00027e-12
2.35297e-12
1.51416e-12
7.02003e-13
5.32915e-14
-3.73573e-13
-5.81635e-13
-6.12759e-13
-5.25788e-13
-3.79437e-13
-2.215e-13
-8.41015e-14
1.63378e-14
7.61922e-14
1.00441e-13
9.84786e-14
8.07228e-14
5.63393e-14
3.20863e-14
1.20495e-14
-2.03162e-15
-1.01413e-14
-1.33018e-14