# vtk DataFile Version 2.0
FlowField
ASCII
DATASET STRUCTURED_GRID
DIMENSIONS 1602 1 52
POINTS 83304 float
0 0 0
0.1 0 0
0.2 0 0
0.3 0 0
0.4 0 0
0.5 0 0
0.6 0 0
0.7 0 0
0.8 0 0
0.9 0 0
1 0 0
1.1 0 0
1.2 0 0
1.3 0 0
1.4 0 0
1.5 0 0
1.6 0 0
1.7 0 0
1.8 0 0
1.9 0 0
2 0 0
2.1 0 0
2.2 0 0
2.3 0 0
2.4 0 0
2.5 0 0
2.6 0 0
2.7 0 0
2.8 0 0
2.9 0 0
3 0 0
3.1 0 0
3.2 0 0
3.3 0 0
3.4 0 0
3.5 0 0
3.6 0 0
3.7 0 0
3.8 0 0
3.9 0 0
4 0 0
4.1 0 0
4.2 0 0
4.3 0 0
4.4 0 0
4.5 0 0
4.6 0 0
4.7 0 0
4.8 0 0
4.9 0 0
5 0 0
5.1 0 0
5.2 0 0
5.3 0 0
5.4 0 0
5.5 0 0
5.6 0 0
5.7 0 0
5.8 0 0
5.9 0 0
6 0 0
6.1 0 0
6.2 0 0
6.3 0 0
6.4 0 0
6.5 0 0
6.6 0 0
6.7 0 0
6.8 0 0
6.9 0 0
7 0 0
7.1 0 0
7.2 0 0
7.3 0 0
7.4 0 0
7.5 0 0
7.6 0 0
7.7 0 0
7.8 0 0
7.9 0 0
8 0 0
8.1 0 0
8.2 0 0
8.3 0 0
8.4 0 0
8.5 0 0
8.6 0 0
8.7 0 0
8.8 0 0
8.9 0 0
9 0 0
9.1 0 0
9.2 0 0
9.3 0 0
9.4 0 0
9.5 0 0
9.6 0 0
9.7 0 0
9.8 0 0
9.9 0 0
10 0 0
10.1 0 0
10.2 0 0
10.3 0 0
10.4 0 0
10.5 0 0
10.6 0 0
10.7 0 0
10.8 0 0
10.9 0 0
11 0 0
11.1 0 0
11.2 0 0
11.3 0 0
11.4 0 0
11.5 0 0
11.6 0 0
11.7 0 0
11.8 0 0
11.9 0 0
12 0 0
12.1 0 0
12.2 0 0
12.3 0 0
12.4 0 0
12.5 0 0
12.6 0 0
12.7 0 0
12.8 0 0
12.9 0 0
13 0 0
13.1 0 0
13.2 0 0
13.3 0 0
13.4 0 0
13.5 0 0
13.6 0 0
13.7 0 0
13.8 0 0
13.9 0 0
14 0 0
14.1 0 0
14.2 0 0
14.3 0 0
14.4 0 0
14.5 0 0
14.6 0 0
14.7 0 0
14.8 0 0
14.9 0 0
15 0 0
15.1 0 0
15.2 0 0
15.3 0 0
15.4 0 0
15.5 0 0
15.6 0 0
15.7 0 0
15.8 0 0
15.9 0 0
16 0 0
16.1 0 0
16.2 0 0
16.3 0 0
16.4 0 0
16.5 0 0
16.6 0 0
16.7 0 0
16.8 0 0
16.9 0 0
17 0 0
17.1 0 0
17.2 0 0
17.3 0 0
17.4 0 0
17.5 0 0
17.6 0 0
17.7 0 0
17.8 0 0
17.9 0 0
18 0 0
18.1 0 0
18.2 0 0
18.3 0 0
18.4 0 0
18.5 0 0
18.6 0 0
18.7 0 0
18.8 0 0
18.9 0 0
19 0 0
19.1 0 0
19.2 0 0
19.3 0 0
19.4 0 0
19.5 0 0
19.6 0 0
19.7 0 0
19.8 0 0
19.9 0 0
20 0 0
20.1 0 0
20.2 0 0
20.3 0 0
20.4 0 0
20.5 0 0
20.6 0 0
20.7 0 0
20.8 0 0
20.9 0 0
21 0 0
21.1 0 0
21.2 0 0
21.3 0 0
21.4 0 0
21.5 0 0
21.6 0 0
21.7 0 0
21.8 0 0
21.9 0 0
22 0 0
22.1 0 0
22.2 0 0
22.3 0 0
22.4 0 0
22.5 0 0
22.6 0 0
22.7 0 0
22.8 0 0
22.9 0 0
23 0 0
23.1 0 0
23.2 0 0
23.3 0 0
23.4 0 0
23.5 0 0
23.6 0 0
23.7 0 0
23.8 0 0
23.9 0 0
24 0 0
24.1 0 0
24.2 0 0
24.3 0 0
24.4 0 0
24.5 0 0
24.6 0 0
24.7 0 0
24.8 0 0
24.9 0 0
25 0 0
25.1 0 0
25.2 0 0
25.3 0 0
25.4 0 0
25.5 0 0
25.6 0 0
25.7 0 0
25.8 0 0
25.9 0 0
26 0 0
26.1 0 0
26.2 0 0
26.3 0 0
26.4 0 0
26.5 0 0
26.6 0 0
26.7 0 0
26.8 0 0
26.9 0 0
27 0 0
27.1 0 0
27.2 0 0
27.3 0 0
27.4 0 0
27.5 0 0
27.6 0 0
27.7 0 0
27.8 0 0
27.9 0 0
28 0 0
28.1 0 0
28.2 0 0
28.3 0 0
28.4 0 0
28.5 0 0
28.6 0 0
28.7 0 0
28.8 0 0
28.9 0 0
29 0 0
29.1 0 0
29.2 0 0
29.3 0 0
29.4 0 0
29.5 0 0
29.6 0 0
29.7 0 0
29.8 0 0
29.9 0 0
30 0 0
30.1 0 0
30.2 0 0
30.3 0 0
30.4 0 0
30.5 0 0
30.6 0 0
30.7 0 0
30.8 0 0
30.9 0 0
31 0 0
31.1 0 0
31.2 0 0
31.3 0 0
31.4 0 0
31.5 0 0
31.6 0 0
31.7 0 0
31.8 0 0
31.9 0 0
32 0 0
32.1 0 0
32.2 0 0
32.3 0 0
32.4 0 0
32.5 0 0
32.6 0 0
32.7 0 0
32.8 0 0
32.9 0 0
33 0 0
33.1 0 0
33.2 0 0
33.3 0 0
33.4 0 0
33.5 0 0
33.6 0 0
33.7 0 0
33.8 0 0
33.9 0 0
34 0 0
34.1 0 0
34.2 0 0
34.3 0 0
34.4 0 0
34.5 0 0
34.6 0 0
34.7 0 0
34.8 0 0
34.9 0 0
35 0 0
35.1 0 0
35.2 0 0
35.3 0 0
35.4 0 0
35.5 0 0
35.6 0 0
35.7 0 0
35.8 0 0
35.9 0 0
36 0 0
36.1 0 0
36.2 0 0
36.3 0 0
36.4 0 0
36.5 0 0
36.6 0 0
36.7 0 0
36.8 0 0
36.9 0 0
37 0 0
37.1 0 0
37.2 0 0
37.3 0 0
37.4 0 0
37.5 0 0
37.6 0 0
37.7 0 0
37.8 0 0
37.9 0 0
38 0 0
38.1 0 0
38.2 0 0
38.3 0 0
38.4 0 0
38.5 0 0
38.6 0 0
38.7 0 0
38.8 0 0
38.9 0 0
39 0 0
39.1 0 0
39.2 0 0
39.3 0 0
39.4 0 0
39.5 0 0
39.6 0 0
39.7 0 0
39.8 0 0
39.9 0 0
40 0 0
40.1 0 0
40.2 0 0
40.3 0 0
40.4 0 0
40.5 0 0
40.6 0 0
40.7 0 0
40.8 0 0
40.9 0 0
41 0 0
41.1 0 0
41.2 0 0
41.3 0 0
41.4 0 0
41.5 0 0
41.6 0 0
41.7 0 0
41.8 0 0
41.9 0 0
42 0 0
42.1 0 0
42.2 0 0
42.3 0 0
42.4 0 0
42.5 0 0
42.6 0 0
42.7 0 0
42.8 0 0
42.9 0 0
43 0 0
43.1 0 0
43.2 0 0
43.3 0 0
43.4 0 0
43.5 0 0
43.6 0 0
43.7 0 0
43.8 0 0
43.9 0 0
44 0 0
44.1 0 0
44.2 0 0
44.3 0 0
44.4 0 0
44.5 0 0
44.6 0 0
44.7 0 0
44.8 0 0
44.9 0 0
45 0 0
45.1 0 0
45.2 0 0
45.3 0 0
45.4 0 0
45.5 0 0
45.6 0 0
45.7 0 0
45.8 0 0
45.9 0 0
46 0 0
46.1 0 0
46.2 0 0
46.3 0 0
46.4 0 0
46.5 0 0
46.6 0 0
46.7 0 0
46.8 0 0
46.9 0 0
47 0 0
47.1 0 0
47.2 0 0
47.3 0 0
47.4 0 0
47.5 0 0
47.6 0 0
47.7 0 0
47.8 0 0
47.9 0 0
48 0 0
48.1 0 0
48.2 0 0
48.3 0 0
48.4 0 0
48.5 0 0
48.6 0 0
48.7 0 0
48.8 0 0
48.9 0 0
49 0 0
49.1 0 0
49.2 0 0
49.3 0 0
49.4 0 0
49.5 0 0
49.6 0 0
49.7 0 0
49.8 0 0
49.9 0 0
50 0 0
50.1 0 0
50.2 0 0
50.3 0 0
50.4 0 0
50.5 0 0
50.6 0 0
50.7 0 0
50.8 0 0
50.9 0 0
51 0 0
51.1 0 0
51.2 0 0
51.3 0 0
51.4 0 0
51.5 0 0
51.6 0 0
51.7 0 0
51.8 0 0
51.9 0 0
52 0 0
52.1 0 0
52.2 0 0
52.3 0 0
52.4 0 0
52.5 0 0
52.6 0 0
52.7 0 0
52.8 0 0
52.9 0 0
53 0 0
53.1 0 0
53.2 0 0
53.3 0 0
53.4 0 0
53.5 0 0
53.6 0 0
53.7 0 0
53.8 0 0
53.9 0 0
54 0 0
54.1 0 0
54.2 0 0
54.3 0 0
54.4 0 0
54.5 0 0
54.6 0 0
54.7 0 0
54.8 0 0
54.9 0 0
55 0 0
55.1 0 0
55.2 0 0
55.3 0 0
55.4 0 0
55.5 0 0
55.6 0 0
55.7 0 0
55.8 0 0
55.9 0 0
56 0 0
56.1 0 0
56.2 0 0
56.3 0 0
56.4 0 0
56.5 0 0
56.6 0 0
56.7 0 0
56.8 0 0
56.9 0 0
57 0 0
57.1 0 0
57.2 0 0
57.3 0 0
57.4 0 0
57.5 0 0
57.6 0 0
57.7 0 0
57.8 0 0
57.9 0 0
58 0 0
58.1 0 0
58.2 0 0
58.3 0 0
58.4 0 0
58.5 0 0
58.6 0 0
58.7 0 0
58.8 0 0
58.9 0 0
59 0 0
59.1 0 0
59.2 0 0
59.3 0 0
59.4 0 0
59.5 0 0
59.6 0 0
59.7 0 0
59.8 0 0
59.9 0 0
60 0 0
60.1 0 0
60.2 0 0
60.3 0 0
60.4 0 0
60.5 0 0
60.6 0 0
60.7 0 0
60.8 0 0
60.9 0 0
61 0 0
61.1 0 0
61.2 0 0
61.3 0 0
61.4 0 0
61.5 0 0
61.6 0 0
61.7 0 0
61.8 0 0
61.9 0 0
62 0 0
62.1 0 0
62.2 0 0
62.3 0 0
62.4 0 0
62.5 0 0
62.6 0 0
62.7 0 0
62.8 0 0
62.9 0 0
63 0 0
63.1 0 0
63.2 0 0
63.3 0 0
63.4 0 0
63.5 0 0
63.6 0 0
63.7 0 0
63.8 0 0
63.9 0 0
64 0 0
64.1 0 0
64.2 0 0
64.3 0 0
64.4 0 0
64.5 0 0
64.6 0 0
64.7 0 0
64.8 0 0
64.9 0 0
65 0 0
65.1 0 0
65.2 0 0
65.3 0 0
65.4 0 0
65.5 0 0
65.6 0 0
65.7 0 0
65.8 0 0
65.9 0 0
66 0 0
66.1 0 0
66.2 0 0
66.3 0 0
66.4 0 0
66.5 0 0
66.6 0 0
66.7 0 0
66.8 0 0
66.9 0 0
67 0 0
67.1 0 0
67.2 0 0
67.3 0 0
67.4 0 0
67.5 0 0
67.6 0 0
67.7 0 0
67.8 0 0
67.9 0 0
68 0 0
68.1 0 0
68.2 0 0
68.3 0 0
68.4 0 0
68.5 0 0
68.6 0 0
68.7 0 0
68.8 0 0
68.9 0 0
69 0 0
69.1 0 0
69.2 0 0
69.3 0 0
69.4 0 0
69.5 0 0
69.6 0 0
69.7 0 0
69.8 0 0
69.9 0 0
70 0 0
70.1 0 0
70.2 0 0
70.3 0 0
70.4 0 0
70.5 0 0
70.6 0 0
70.7 0 0
70.8 0 0
70.9 0 0
71 0 0
71.1 0 0
71.2 0 0
71.3 0 0
71.4 0 0
71.5 0 0
71.6 0 0
71.7 0 0
71.8 0 0
71.9 0 0
72 0 0
72.1 0 0
72.2 0 0
72.3 0 0
72.4 0 0
72.5 0 0
72.6 0 0
72.7 0 0
72.8 0 0
72.9 0 0
73 0 0
73.1 0 0
73.2 0 0
73.3 0 0
73.4 0 0
73.5 0 0
73.6 0 0
73.7 0 0
73.8 0 0
73.9 0 0
74 0 0
74.1 0 0
74.2 0 0
74.3 0 0
74.4 0 0
74.5 0 0
74.6 0 0
74.7 0 0
74.8 0 0
74.9 0 0
75 0 0
75.1 0 0
75.2 0 0
75.3 0 0
75.4 0 0
75.5 0 0
75.6 0 0
75.7 0 0
75.8 0 0
75.9 0 0
76 0 0
76.1 0 0
76.2 0 0
76.3 0 0
76.4 0 0
76.5 0 0
76.6 0 0
76.7 0 0
76.8 0 0
76.9 0 0
77 0 0
77.1 0 0
77.2 0 0
77.3 0 0
77.4 0 0
77.5 0 0
77.6 0 0
77.7 0 0
77.8 0 0
77.9 0 0
78 0 0
78.1 0 0
78.2 0 0
78.3 0 0
78.4 0 0
78.5 0 0
78.6 0 0
78.7 0 0
78.8 0 0
78.9 0 0
79 0 0
79.1 0 0
79.2 0 0
79.3 0 0
79.4 0 0
79.5 0 0
79.6 0 0
79.7 0 0
79.8 0 0
79.9 0 0
80 0 0
80.1 0 0
80.2 0 0
80.3 0 0
80.4 0 0
80.5 0 0
80.6 0 0
80.7 0 0
80.8 0 0
80.9 0 0
81 0 0
81.1 0 0
81.2 0 0
81.3 0 0
81.4 0 0
81.5 0 0
81.6 0 0
81.7 0 0
81.8 0 0
81.9 0 0
82 0 0
82.1 0 0
82.2 0 0
82.3 0 0
82.4 0 0
82.5 0 0
82.6 0 0
82.7 0 0
82.8 0 0
82.9 0 0
83 0 0
83.1 0 0
83.2 0 0
83.3 0 0
83.4 0 0
83.5 0 0
83.6 0 0
83.7 0 0
83.8 0 0
83.9 0 0
84 0 0
84.1 0 0
84.2 0 0
84.3 0 0
84.4 0 0
84.5 0 0
84.6 0 0
84.7 0 0
84.8 0 0
84.9 0 0
85 0 0
85.1 0 0
85.2 0 0
85.3 0 0
85.4 0 0
85.5 0 0
85.6 0 0
85.7 0 0
85.8 0 0
85.9 0 0
86 0 0
86.1 0 0
86.2 0 0
86.3 0 0
86.4 0 0
86.5 0 0
86.6 0 0
86.7 0 0
86.8 0 0
86.9 0 0
87 0 0
87.1 0 0
87.2 0 0
87.3 0 0
87.4 0 0
87.5 0 0
87.6 0 0
87.7 0 0
87.8 0 0
87.9 0 0
88 0 0
88.1 0 0
88.2 0 0
88.3 0 0
88.4 0 0
88.5 0 0
88.6 0 0
88.7 0 0
88.8 0 0
88.9 0 0
89 0 0
89.1 0 0
89.2 0 0
89.3 0 0
89.4 0 0
89.5 0 0
89.6 0 0
89.7 0 0
89.8 0 0
89.9 0 0
90 0 0
90.1 0 0
90.2 0 0
90.3 0 0
90.4 0 0
90.5 0 0
90.6 0 0
90.7 0 0
90.8 0 0
90.9 0 0
91 0 0
91.1 0 0
91.2 0 0
91.3 0 0
91.4 0 0
91.5 0 0
91.6 0 0
91.7 0 0
91.8 0 0
91.9 0 0
92 0 0
92.1 0 0
92.2 0 0
92.3 0 0
92.4 0 0
92.5 0 0
92.6 0 0
92.7 0 0
92.8 0 0
92.9 0 0
93 0 0
93.1 0 0
93.2 0 0
93.3 0 0
93.4 0 0
93.5 0 0
93.6 0 0
93.7 0 0
93.8 0 0
93.9 0 0
94 0 0
94.1 0 0
94.2 0 0
94.3 0 0
94.4 0 0
94.5 0 0
94.6 0 0
94.7 0 0
94.8 0 0
94.9 0 0
95 0 0
95.1 0 0
95.2 0 0
95.3 0 0
95.4 0 0
95.5 0 0
95.6 0 0
95.7 0 0
95.8 0 0
95.9 0 0
96 0 0
96.1 0 0
96.2 0 0
96.3 0 0
96.4 0 0
96.5 0 0
96.6 0 0
96.7 0 0
96.8 0 0
96.9 0 0
97 0 0
97.1 0 0
97.2 0 0
97.3 0 0
97.4 0 0
97.5 0 0
97.6 0 0
97.7 0 0
97.8 0 0
97.9 0 0
98 0 0
98.1 0 0
98.2 0 0
98.3 0 0
98.4 0 0
98.5 0 0
98.6 0 0
98.7 0 0
98.8 0 0
98.9 0 0
99 0 0
99.1 0 0
99.2 0 0
99.3 0 0
99.4 0 0
99.5 0 0
99.6 0 0
99.7 0 0
99.8 0 0
99.9 0 0
100 0 0
100.1 0 0
100.2 0 0
100.3 0 0
100.4 0 0
100.5 0 0
100.6 0 0
100.7 0 0
100.8 0 0
100.9 0 0
101 0 0
101.1 0 0
101.2 0 0
101.3 0 0
101.4 0 0
101.5 0 0
101.6 0 0
101.7 0 0
101.8 0 0
101.9 0 0
102 0 0
102.1 0 0
102.2 0 0
102.3 0 0
102.4 0 0
102.5 0 0
102.6 0 0
102.7 0 0
102.8 0 0
102.9 0 0
103 0 0
103.1 0 0
103.2 0 0
103.3 0 0
103.4 0 0
103.5 0 0
103.6 0 0
103.7 0 0
103.8 0 0
103.9 0 0
104 0 0
104.1 0 0
104.2 0 0
104.3 0 0
104.4 0 0
104.5 0 0
104.6 0 0
104.7 0 0
104.8 0 0
104.9 0 0
105 0 0
105.1 0 0
105.2 0 0
105.3 0 0
105.4 0 0
105.5 0 0
105.6 0 0
105.7 0 0
105.8 0 0
105.9 0 0
106 0 0
106.1 0 0
106.2 0 0
106.3 0 0
106.4 0 0
106.5 0 0
106.6 0 0
106.7 0 0
106.8 0 0
106.9 0 0
107 0 0
107.1 0 0
107.2 0 0
107.3 0 0
107.4 0 0
107.5 0 0
107.6 0 0
107.7 0 0
107.8 0 0
107.9 0 0
108 0 0
108.1 0 0
108.2 0 0
108.3 0 0
108.4 0 0
108.5 0 0
108.6 0 0
108.7 0 0
108.8 0 0
108.9 0 0
109 0 0
109.1 0 0
109.2 0 0
109.3 0 0
109.4 0 0
109.5 0 0
109.6 0 0
109.7 0 0
109.8 0 0
109.9 0 0
110 0 0
110.1 0 0
110.2 0 0
110.3 0 0
110.4 0 0
110.5 0 0
110.6 0 0
110.7 0 0
110.8 0 0
110.9 0 0
111 0 0
111.1 0 0
111.2 0 0
111.3 0 0
111.4 0 0
111.5 0 0
111.6 0 0
111.7 0 0
111.8 0 0
111.9 0 0
112 0 0
[...]
POINT_DATA 83304

SCALARS pressure float 1
LOOKUP_TABLE default
0
0
0
0
0
0
0
0
0
0
0
0
0
0
0
0
0
0
0
0
0
0
0
0
0
0
0
0
0
0
0
0
0
0
0
0
0
0
0
0
0
0
0
0
0
0
0
0
0
0
0
0
0
0
0
0
0
0
0
0
0
0
0
0
0
0
0
0
0
0
0
0
0
0
0
0
0
0
0
0
0
0
0
0
0
0
0
0
0
0
0
0
0
0
0
0
0
0
0
0
0
0
0
0
0
0
0
0
0
0
0
0
0
0
0
0
0
0
0
0
0
0
0
0
0
0
0
0
0
0
0
0
0
0
0
0
0
0
0
0
0
0
0
0
0
0
0
0
0
0
0
0
0
0
0
0
0
0
0
0
0
0
0
0
0
0
0
0
0
0
0
0
0
0
0
0
0
0
0
0
0
0
0
0
0
0
0
0
0
0
0
0
0
0
0
0
0
0
0
0
0
0
0
0
0
0
0
0
0
0
0
0
0
0
0
0
0
0
0
0
0
0
0
0
0
0
0
0
0
0
0
0
0
0
0
0
0
0
0
0
0
0
0
0
0
0
0
0
0
0
0
0
0
0
0
0
0
0
0
0
0
0
0
0
0
0
0
0
0
0
0
0
0
0
0
0
0
0
0
0
0
0
0
0
0
0
0
0
0
0
0
0
0
0
0
0
0
0
0
0
0
0
0
0
0
0
0
0
0
0
0
0
0
0
0
0
0
0
0
0
0
0
0
0
0
0
0
0
0
0
0
0
0
0
0
0
0
0
0
0
0
0
0
0
0
0
0
0
0
0
0
0
0
0
0
0
0
0
0
0
0
0
0
0
0
0
0
0
0
0
0
0
0
0
0
0
0
0
0
0
0
0
0
0
0
0
0
0
0
0
0
0
0
0
0
0
0
0
0
0
0
0
0
0
0
0
0
0
0
0
0
0
0
0
0
0
0
0
0
0
0
0
0
0
0
0
0
0
0
0
0
0
0
0
0
0
0
0
0
0
0
0
0
0
0
0
0
0
0
0
0
0
0
0
0
0
0
0
0
0
0
0
0
0
0
0
0
0
0
0
0
0
0
0
0
0
0
0
0
0
0
0
0
0
0
0
0
0
0
0
0
0
0
0
0
0
0
0
0
0
0
0
0
0
0
0
0
0
0
0
0
0
0
0
0
0
0
0
0
0
0
0
0
0
0
0
0
0
0
0
0
0
0
0
0
0
0
0
0
0
0
0
0
0
0
0
0
0
0
0
0
0
0
0
0
0
0
0
0
0
0
0
0
0
0
0
0
0
0
0
0
0
0
0
0
0
0
0
0
0
0
0
0
0
0
0
0
0
0
0
0
0
0
0
0
0
0
0
0
0
0
0
0
0
0
0
0
0
0
0
0
0
0
0
0
0
0
0
0
0
0
0
0
0
0
0
0
0
0
0
0
0
0
0
0
0
0
0
0
0
0
0
0
0
0
0
0
0
0
0
0
0
0
0
0
0
0
0
0
0
0
0
0
0
0
0
0
0
0
0
0
0
0
0
0
0
0
0
0
0
0
0
0
0
0
0
0
0
0
0
0
0
0
0
0
0
0
0
0
0
0
0
0
0
0
0
0
0
0
0
0
0
0
0
0
0
0
0
0
0
0
0
0
0
0
0
0
0
0
0
0
0
0
0
0
0
0
0
0
0
0
0
0
0
0
0
0
0
0
0
0
0
0
0
0
0
0
0
0
0
0
0
0
0
0
0
0
0
0
0
0
0
0
0
0
0
0
0
0
0
0
0
0
0
0
0
0
0
0
0
0
0
0
0
0
0
0
0
0
0
0
0
0
0
0
0
0
0
0
0
0
0
0
0
0
0
0
0
0
0
0
0
0
0
0
0
0
0
0
0
0
0
0
0
0
0
0
0
0
0
0
0
0
0
0
0
0
0
0
0
0
0
0
0
0
0
0
0
0
0
0
0
0
0
0
0
0
0
0
0
0
0
0
0
0
0
0
0
0
0
0
0
0
0
0
0
0
0
0
0
0
0
0
0
0
0
0
0
0
0
0
0
0
0
0
0
0
0
0
0
0
0
0
0
0
0
0
0
0
0
0
0
0
0
0
0
0
0
0
0
0
0
0
0
0
0
0
0
0
0
0
0
0
0
0
0
0
0
0
0
0
0
0
0
0
0
0
0
0
0
0
0
0
0
0
0
0
0
0
0
0
0
0
0
0
0
0
0
0
0
0
0
0
0
0
0
0
0
0
0
0
0
0
0
0
0
0
0
0
0
0
0
0
0
0
0
0
0
0
0
0
0
0
0
0
0
0
0
0
0
0
0
0
0
0
0
0
0
0
0
0
0
0
0
0
0
0
0
0
0
0
0
0
0
0
0
0
0
0
0
0
0
0
0
0
0
0
0
0
0
0
0
0
0
0
0
0
0
0
0
0
0
0
0
0
0
0
0
0
0
0
0
0
0
0
0
0
0
0
0
0
0
0
0
0
0
0
0
0
0
0
0
0
0
0
0
0
0
0
0
0
0
0
0
0
0
0
0
0
0
0
0
0
0
0
0
0
0
0
0
0
0
0
0
0
0
0
0
0
0
0
0
0
0
0
0
0
0
0
0
0
0
0
0
0
0
0
0
0
0
0
0
0
0
0
0
0
0
0
0
0
0
0
0
0
0
0
0
0
0
0
0
0
0
0
0
0
0
0
0
0
0
0
0
0
0
0
0
0
0
0
0
0
0
0
0
0
0
0
0
0
0
0
0
0
0
0
0
0
0
0
0
0
0
0
0
0
0
0
0
0
0
0
0
0
0
0
0
0
0
0
0
0
0
0
0
0
0
0
0
0
0
0
0
0
0
0
0
0
0
0
0
0
0
0
0
0
0
0
0
0
0
0
0
0
0
0
0
0
0
0
0
0
0
0
0
0
0
0
0
0
0
0
0
0
0
0
0
0
0
0
0
0
0
0
0
0
0
0
0
0
0
0
0
0
0
0
0
0
0
0
0
0
0
0
0
0
0
0
0
0
0
0
0
0
0
0
0
0
0
0
0
0
0
0
0
0
0
0
0
0
0
0
0
0
0
0
0
0
0
0
0
0
0
0
0
0
0
0
0
0
0
0
0
0
0
0
0
0
0
0
0
0
0
0
0
0
0
0
0
0
0
0
0
0
0
0
0
0
0
0
0
0
0
0
0
0
0
0
0
0
0
0
0
0
0
0
0
0
0
0
0
0
0
0
0
0
0
0
0
0
0
0
0
0
0
0
0
0
0
0
0
0
0
0
0
0
0
0
0
0
0
0
0
0
0
0
0
0
0
0
0
0
0
0
0
0
0
0
0
0
0
0
0
0
0
0
0
0
0
0
0
0
0
0
0
0
0
0
0
0
0
0
0
0
0
0
0
0
0
0
0
0
0
0
0
0
0
0
0
0
0
0
0
0
0
0
0
0
0
0
0
0
0
0
0
0
0
0
0
0
0
0
0
0
0
0
0
0
0
0
0
0
0
0
0
0
0
0
0
0
0
0
0
0
0
0
0
0
0
0
0
0
0
0
0
0
0
0
0
0
0
0
0
0
0
0
0
0
0
0
0
0
0
0
0
0
0
0
0
0
0
0
0
0
0
0
0
0
0
0
0
0
0.0776415
0.052903
0.0436505
0.0357426
0.03048
0.0271088
0.0248019
0.023116
0.0218008
0.0207277
0.0198235
0.0190436
0.0183596
0.0177519
0.0172066
0.0167134
0.0162643
0.0158532
0.0154749
0.0151254
0.0148011
0.0144993
0.0142174
0.0139533
0.0137051
0.0134714
0.0132506
0.0130416
0.0128434
0.0126549
0.0124753
0.012304
0.0121402
0.0119834
0.0118331
0.0116887
0.01155
0.0114165
0.011288
0.0111641
0.0110446
0.0109293
0.010818
0.0107103
0.0106062
0.0105052
0.0104069
0.0103108
0.0102162
0.0101224
0.0100282
0.00993271
0.00983464
0.00973298
0.00962693
0.00951625
0.00940148
0.00928435
0.00916807
0.00905763
0.00895994
0.00888375
0.00883938
0.00883798
0.00889049
0.00900609
0.00919043
0.0094435
0.00975745
0.0101146
0.0104855
0.0108283
0.0110885
0.0112002
0.0110897
0.0106811
0.00990543
0.00871152
0.00707717
0.00502462
0.00263741
7.30452e-05
-0.00243389
-0.00459202
-0.00609208
-0.00665039
-0.00604406
-0.00413442
-0.000877816
0.00368593
0.00944681
0.0162425
0.023881
0.032155
0.0408556
0.049776
0.0587091
0.0674543
0.0758288
0.0836362
0.0906559
0.0966824
0.101568
0.105221
0.107578
0.108592
0.108251
0.106592
0.103708
0.099737
0.0948523
0.089252
0.0831465
0.0767449
0.0702414
0.0638038
0.0575672
0.0516322
0.0460678
0.0409154
0.036194
0.0319056
0.0280392
0.0245756
0.0214895
0.0187526
0.016335
0.0142067
0.0123388
0.0107036
0.00927522
0.00802997
0.00694618
0.00600429
0.00518676
0.00447797
0.00386405
0.00333275
0.00287332
0.00247629
0.00213338
0.00183739
0.001582
0.00136175
0.00117187
0.00100823
0.000867249
0.000745826
0.000641275
0.000551274
0.000473817
0.000407169
0.000349835
0.000300523
0.000258118
0.00022166
0.000190319
0.000163384
0.000140237
0.00012035
0.000103267
8.85938e-05
7.59932e-05
6.51741e-05
5.5886e-05
4.79137e-05
4.10717e-05
3.52007e-05
3.01638e-05
2.58432e-05
2.21376e-05
1.896e-05
1.62355e-05
1.39001e-05
1.18984e-05
1.01831e-05
8.71341e-06
7.45443e-06
6.37613e-06
5.45274e-06
4.66216e-06
3.9854e-06
3.4062e-06
2.91057e-06
2.48653e-06
2.12382e-06
1.81361e-06
1.54836e-06
1.32159e-06
1.12777e-06
9.62131e-07
8.20611e-07
6.99717e-07
5.96463e-07
5.08302e-07
4.33068e-07
3.68913e-07
3.14251e-07
2.67713e-07
2.28104e-07
1.94385e-07
1.65667e-07
1.41204e-07
1.20376e-07
1.02656e-07
8.75689e-08
7.4648e-08
6.34274e-08
5.34736e-08
4.4456e-08
3.62285e-08
2.88787e-08
2.27049e-08
1.81042e-08
1.53911e-08
1.46047e-08
1.53785e-08
1.6936e-08
1.82393e-08
1.82582e-08
1.62824e-08
1.21705e-08
6.44432e-09
1.83368e-10
-5.26079e-09
-8.6477e-09
-9.2121e-09
-6.89554e-09
-2.37392e-09
3.12641e-09
8.16576e-09
1.14787e-08
1.22981e-08
1.05272e-08
6.72066e-09
1.89337e-09
-2.77512e-09
-6.25199e-09
-7.8925e-09
-7.55516e-09
-5.57566e-09
-2.62433e-09
5.00129e-10
3.07868e-09
4.62889e-09
4.97934e-09
4.25689e-09
2.80489e-09
1.06508e-09
-5.41462e-10
-1.70538e-09
-2.27583e-09
-2.26106e-09
-1.79255e-09
-1.06894e-09
-2.97484e-10
3.52981e-10
7.79319e-10
9.50282e-10
8.95324e-10
6.82955e-10
3.96175e-10
1.11222e-10
-1.16545e-10
-2.5845e-10
-3.11022e-10
-2.89593e-10
-2.19772e-10
-1.29241e-10
-4.15377e-11
2.74471e-11
7.03277e-11
8.70773e-11
8.2734e-11
6.48023e-11
4.09849e-11
1.76085e-11
-1.16047e-12
-1.34093e-11
-1.90943e-11
-1.94165e-11
-1.61657e-11
-1.11754e-11
-5.95937e-12
-1.53797e-12
1.57867e-12
3.30301e-12
3.83334e-12
3.5124e-12
2.71057e-12
1.74718e-12
8.50895e-13
1.52049e-13
-3.03729e-13
-5.31345e-13
-5.80179e-13
-5.11779e-13
-3.84059e-13
-2.42383e-13
-1.16478e-13
-2.14204e-14
3.913e-14
6.8944e-14
7.55303e-14
6.72891e-14
5.16806e-14
3.43209e-14
1.8781e-14
6.83031e-15
-1.10642e-15
-5.45167e-15
-7.0421e-15
-6.80961e-15
-5.58338e-15
-3.99534e-15
-2.46049e-15
-1.20284e-15
-3.02331e-16
2.54617e-16
5.31266e-16
6.07947e-16
5.61224e-16
4.53068e-16
3.27364e-16
2.10989e-16
1.17216e-16
4.97849e-17
6.67121e-18
-1.6949e-17
-2.66484e-17
-2.75297e-17
-2.36494e-17
-1.78776e-17
-1.20118e-17
-7.00665e-18
-3.22718e-18
-6.74409e-19
8.40164e-19
1.57416e-18
1.78119e-18
1.67373e-18
1.41039e-18
1.09776e-18
7.9936e-19
5.46867e-19
3.50747e-19
2.08895e-19
1.12974e-19
5.2579e-20
1.76828e-20
-1.70891e-22
-7.48142e-21
-8.87254e-21
-7.39799e-21
-4.91498e-21
-2.43791e-21
-4.31506e-22
9.68184e-22
1.79985e-21
2.17783e-21
2.23392e-21
2.08722e-21
1.83191e-21
1.53525e-21
1.24071e-21
9.7318e-22
7.44248e-22
5.56778e-22
4.0849e-22
2.94491e-22
2.08947e-22
1.46094e-22
1.0077e-22
6.86304e-23
4.61877e-23
3.07361e-23
2.02365e-23
1.31888e-23
8.51243e-24
5.44322e-24
3.44959e-24
2.16736e-24
1.35043e-24
8.34658e-25
5.11855e-25
3.11519e-25
1.88197e-25
1.1288e-25
6.72309e-26
3.97692e-26
2.33677e-26
1.36408e-26
7.91184e-27
4.56021e-27
2.61225e-27
1.48737e-27
8.41859e-28
4.73724e-28
2.65043e-28
1.47453e-28
8.15788e-29
4.48871e-29
2.45653e-29
1.33725e-29
7.2414e-30
3.9011e-30
2.09089e-30
1.11503e-30
5.91672e-31
3.12419e-31
1.64166e-31
8.58501e-32
4.46823e-32
2.31468e-32
1.19351e-32
6.12581e-33
3.12986e-33
1.59195e-33
8.06112e-34
4.0639e-34
2.03981e-34
1.01942e-34
5.07284e-35
2.51362e-35
1.24027e-35
6.09419e-36
2.98204e-36
1.4532e-36
7.05284e-37
3.40915e-37
1.64129e-37
7.87032e-38
3.7591e-38
1.78843e-38
8.47557e-39
4.00118e-39
1.88166e-39
8.81532e-40
4.11427e-40
1.91301e-40
8.86176e-41
4.08992e-41
1.88066e-41
8.61623e-42
3.93321e-42
1.789e-42
8.108e-43
3.6616e-43
1.64774e-43
7.38887e-44
3.30177e-44
1.4703e-44
6.52473e-45
2.88553e-45
1.27176e-45
5.5861e-46
2.44537e-46
1.06689e-46
4.63921e-47
2.0106e-47
8.68501e-48
3.73927e-48
1.60466e-48
6.86384e-49
2.92647e-49
1.24372e-49
5.2688e-50
2.22492e-50
9.36571e-51
3.93003e-51
1.64395e-51
6.85522e-52
2.84973e-52
1.18098e-52
4.87915e-53
2.00962e-53
8.25195e-54
3.37817e-54
1.37877e-54
5.61042e-55
2.27613e-55
9.20667e-56
3.71295e-56
1.49297e-56
5.98554e-57
2.39267e-57
9.53662e-58
3.79004e-58
1.50188e-58
5.9344e-59
2.33814e-59
9.18593e-60
3.59864e-60
1.4058e-60
5.47623e-61
2.12725e-61
8.24021e-62
3.18307e-62
1.22616e-62
4.71028e-63
1.80446e-63
6.89374e-64
2.62648e-64
9.97952e-65
3.78151e-65
1.42904e-65
5.38587e-66
2.02441e-66
7.58891e-67
2.83728e-67
1.05797e-67
3.93451e-68
1.45937e-68
5.3988e-69
1.99201e-69
7.33085e-70
2.69083e-70
9.85128e-71
3.59731e-71
1.31022e-71
4.7599e-72
1.72481e-72
6.23415e-73
2.24756e-73
8.08248e-74
2.89924e-74
1.03736e-74
3.70245e-75
1.31815e-75
4.68119e-76
1.65833e-76
5.86019e-77
2.06577e-77
7.26412e-78
2.54813e-78
8.91658e-79
3.11256e-79
1.08389e-79
3.76528e-80
1.30486e-80
4.51114e-81
1.55585e-81
5.35316e-82
1.83746e-82
6.29206e-83
2.14951e-83
7.32588e-84
2.49091e-84
8.44958e-85
2.85954e-85
9.6548e-86
3.25221e-86
1.09297e-86
3.66462e-87
1.22588e-87
4.09139e-88
1.36237e-88
4.5261e-89
1.50025e-89
4.96151e-90
1.63711e-90
5.38966e-91
1.77036e-91
5.80212e-92
1.8973e-92
6.19033e-93
2.01521e-93
6.54578e-94
2.12147e-94
6.86044e-95
2.21364e-95
7.12696e-96
2.28954e-96
7.33906e-97
2.34738e-97
7.49167e-98
2.38578e-98
7.58122e-99
2.40386e-99
7.60574e-100
2.40126e-100
7.56492e-101
2.37815e-101
7.46014e-102
2.33523e-102
7.29437e-103
2.27366e-103
7.07205e-104
2.19507e-104
6.79887e-105
2.10142e-105
6.48158e-106
1.99499e-106
6.12767e-107
1.87822e-107
5.7451e-108
1.75367e-108
5.342e-109
1.62392e-109
4.92643e-110
1.49145e-110
4.50608e-111
1.35863e-111
4.08809e-112
1.2276e-112
3.67886e-113
1.10025e-113
3.28393e-114
9.78189e-115
2.9079e-115
8.6271e-116
2.55436e-116
7.54804e-117
2.22598e-117
6.55158e-118
1.92447e-118
5.64178e-119
1.65069e-119
4.82013e-120
1.40475e-120
4.08593e-121
1.18613e-121
3.43657e-122
9.9374e-123
2.86799e-123
8.26113e-124
2.37499e-124
6.81467e-125
1.9516e-125
5.57833e-126
1.59141e-126
4.53139e-127
1.2878e-127
3.65292e-128
1.0342e-128
2.92243e-129
8.24253e-130
2.32037e-130
6.51978e-131
1.82849e-131
5.11841e-132
1.43009e-132
3.98822e-133
1.11016e-133
3.08446e-134
8.55395e-135
2.36782e-135
6.54221e-136
1.80426e-136
4.96673e-137
1.36472e-137
3.74298e-138
1.02469e-138
2.80012e-139
7.63775e-140
2.07951e-140
5.65155e-141
1.53315e-141
4.15159e-142
1.12217e-142
3.02773e-143
8.15443e-144
2.19224e-144
5.88305e-145
1.57594e-145
4.21404e-146
1.12482e-146
2.99703e-147
7.97127e-148
2.11638e-148
5.60904e-149
1.48394e-149
3.91901e-150
1.03317e-150
2.71895e-151
7.14281e-152
1.87316e-152
4.90368e-153
1.28147e-153
3.34303e-154
8.70593e-155
2.26327e-155
5.87357e-156
1.52166e-156
3.93534e-157
1.01601e-157
2.61858e-158
6.73733e-159
1.73047e-159
4.43707e-160
1.13576e-160
2.90225e-161
7.40362e-162
1.88545e-162
4.79344e-163
1.21659e-163
3.08252e-164
7.79712e-165
1.96893e-165
4.96358e-166
1.2492e-166
3.13861e-167
7.87258e-168
1.97138e-168
4.92832e-169
1.23e-169
3.06469e-170
7.62339e-171
1.89317e-171
4.69367e-172
1.16176e-172
2.87082e-173
7.08239e-174
1.74437e-174
4.2893e-175
1.05298e-175
2.58075e-176
6.31483e-177
1.54266e-177
3.76244e-178
9.16144e-179
2.22717e-179
5.40555e-180
1.30986e-180
3.16888e-181
7.654e-182
1.84574e-182
4.44382e-183
1.06818e-183
2.56353e-184
6.14237e-185
1.4694e-185
3.50956e-186
8.36901e-187
1.99253e-187
4.73638e-188
1.12409e-188
2.66358e-189
6.30154e-190
1.48848e-190
3.51038e-191
8.26578e-192
1.94326e-192
4.5614e-193
1.06902e-193
2.50146e-194
5.8442e-195
1.36326e-195
3.17511e-196
7.38353e-197
1.71433e-197
3.97424e-198
9.19903e-199
2.12598e-199
4.90577e-200
1.13028e-200
2.60016e-201
5.97235e-202
1.3697e-202
3.13648e-203
7.17125e-204
1.63714e-204
3.73176e-205
8.49342e-206
1.93015e-206
4.37967e-207
9.92281e-208
2.24477e-208
5.07051e-209
1.14361e-209
2.57543e-210
5.79121e-211
1.30028e-211
2.9151e-212
6.5256e-213
1.45861e-213
3.25542e-214
7.25487e-215
1.61438e-215
3.58704e-216
7.95835e-217
1.76305e-217
3.90001e-218
8.61439e-219
1.89995e-219
4.18427e-220
9.2015e-221
2.0205e-221
4.43019e-222
9.69951e-223
2.12052e-223
4.62912e-224
1.00907e-224
2.19641e-225
4.77388e-226
1.03609e-226
2.24541e-227
4.8592e-228
1.05004e-228
2.26577e-229
4.88204e-230
1.05042e-230
2.25681e-231
4.84179e-232
1.03727e-232
2.219e-233
4.74023e-234
1.01116e-234
2.15389e-235
4.58148e-236
9.73127e-237
2.06403e-237
4.37166e-238
9.24614e-239
1.95281e-239
4.11855e-240
8.67392e-241
1.82421e-241
3.83108e-242
8.03446e-243
1.68261e-243
3.51883e-244
7.34862e-245
1.53252e-245
3.19153e-246
6.6372e-247
1.37837e-247
2.85853e-248
5.9199e-249
1.22429e-249
2.52843e-250
5.21454e-251
1.07394e-251
2.20874e-252
4.53639e-253
9.30415e-254
1.90566e-254
3.89778e-255
7.96147e-256
1.62395e-256
3.30795e-257
6.729e-258
1.36694e-258
2.77303e-259
5.61783e-260
1.13656e-260
2.29628e-261
4.63306e-262
9.33517e-263
1.8784e-263
3.77457e-264
7.57461e-265
1.51798e-265
3.03801e-266
6.07192e-267
1.21193e-267
2.41574e-268
4.80881e-269
9.55969e-270
1.89788e-270
3.76283e-271
7.45043e-272
1.47322e-272
2.90923e-273
5.73733e-274
1.12996e-274
2.22251e-275
4.36564e-276
8.56402e-277
1.67777e-277
3.28258e-278
6.41395e-279
1.25159e-279
2.4391e-280
4.74708e-281
9.22685e-282
1.79106e-282
3.47216e-283
6.72236e-284
1.2998e-284
2.50994e-285
4.84045e-286
9.32272e-287
1.79323e-287
3.4448e-288
6.60891e-289
1.26629e-289
2.42312e-290
4.63078e-291
8.83841e-292
1.68474e-292
3.20726e-293
6.09785e-294
1.15787e-294
2.19577e-295
4.1587e-296
7.86632e-297
1.48604e-297
2.80372e-298
5.28305e-299
9.94217e-300
1.86864e-300
3.50765e-301
6.57591e-302
1.23125e-302
2.30241e-303
4.30004e-304
8.02069e-305
1.49418e-305
2.78001e-306
5.16585e-307
9.58719e-308
1.77703e-308
3.28967e-309
6.08227e-310
1.12314e-310
2.07138e-311
3.81542e-312
7.0191e-313
1.28967e-313
2.36666e-314
4.33763e-315
7.94014e-316
1.45166e-316
2.65071e-317
4.83418e-318
8.80539e-319
1.60191e-319
2.91103e-320
5.2865e-321
9.53547e-322
1.72923e-322
2.47033e-323
0
0
0
0
0
0
0
0
0
0
0
0
0
0
0
0
0
0
0
0
0
0
0
0
0
0
0
0
0
0
0
0
0
0
0
0
0
0
0
0
0
0
0
0
0
0
0
0
0
0
0
0
0
0
0
0
0
0
0
0
0
0
0
0
0
0
0
0
0
0
0
0
0
0
0
0
0
0
0
0
0
0
0
0
0
0
0
0
0
0
0
0
0
0
0
0
0
0
0
0
0
0
0
0
0
0
0
0
0
0
0
0
0
0
0
0
0
0
0
0
0
0
0
0
0
0
0
0
0
0
0
0
0
0
0
0
0
0
0
0
0
0
0
0
0
0
0
0
0
0
0
0
0
0
0
0
0
0
0
0
0
0
0
0
0
0
0
0
0
0
0
0
0
0
0
0
0
0
0
0
0
0
0
0
0
0
0
0
0
0
0
0
0
0
0
0
0
0
0
0
0
0
0
0
0
0
0
0
0
0
0
0
0
0
0
0
0
0
0
0
0
0
0
0
0
0
0
0
0
0
0
0
0
0
0
0
0
0
0
0
0
0
0
0
0
0
0
0
0
0
0
0
0
0
0
0
0
0
0
0
0
0
0
0
0
0
0
0
0
0
0
0
0
0
0
0
0
0
0
0
0
0
0
0
0
0
0
0
0
0
0
0
0
0
0
0
0
0
0
0
0
0
0
0
0
0
0
0
0
0
0
0
0
0
0
0
0
0
0
0
0
0
0
0
0
0
0
0
0
0
0
0
0
0
0
0
0
0
0
0
0
0
0
0
0
0
0
0
0
0
0
0
0
0
0
0
0
0
0
0
0
0
0
0
0
0
0
0
0
0
0
0
0
0
0
0
0
0
0
0
0
0
0
0
0
0
0
0
0
0
0
0
0
0
0
0
0
0
0
0
0
0
0
0
0
0
0
0
0
0
0
0
0
0
0
0
0
0
0
0
0
0
0
0
0
0
0
0
0
0
0
0
0
0
0
0
0
0
0
0
0
0
0
0
0
0
0
0
0
0
0
0
0
0
0
0
0
0
0
0
0
0
0
0
0
0
0
0
0
0
0
0
0
0
0
0
0
0
0
0
0
0
0
0
0
0
0
0
0
0
0
0
0
0
0
0
0
0
0
0
0
0
0
0
0
0
0
0
0
0
0
0
0
0
0
0
0
0
0
0
0
0
0
0
0
0
0
0
0
0
0
0
0
0
0
0
0
0
0
0
0
0
0
0
0
0
0
0
0
0
0
0
0
0
0
0
0
0
0
0
0
0
0
0
0
0
0
0
0
0
0
0
0
0
0
0
0
0
0
0
0
0
0
0
0
0
0
0
0
0
0
0
0
0
0
0
0
0
0
0
0
0
0
0
0
0
0
0
0
0
0
0
0
0
0
0
0
0
0
0
0
0
0
0
0
0
0
0
0
0
0
0
0
0
0
0
0
0
0
0
0
0
0
0
0
0
0
0
0
0
0
0
0
0
0
0
0
0
0
0
0
0
0
0
0
0
0
0
0
0.062787
0.0345542
0.0299574
0.025277
0.0221391
0.0200069
0.0184495
0.0172639
0.0163155
0.0155312
0.0148652
0.0142884
0.013781
0.0133294
0.0129237
0.0125563
0.0122216
0.0119149
0.0116326
0.0113716
0.0111293
0.0109037
0.0106929
0.0104953
0.0103096
0.0101346
0.00996925
0.00981272
0.00966419
0.00952296
0.00938841
0.00925999
0.00913723
0.00901968
0.00890696
0.00879874
0.00869472
0.00859462
0.00849822
0.00840531
0.00831571
0.00822924
0.00814576
0.00806509
0.00798704
0.00791137
0.0078378
0.00776593
0.00769527
0.0076252
0.00755498
0.00748378
0.00741071
0.00733493
0.00725578
0.00717295
0.00708676
0.00699832
0.00690989
0.00682503
0.00674878
0.00668762
0.00664929
0.00664231
0.00667516
0.00675526
0.0068875
0.00707278
0.00730624
0.00757574
0.00786055
0.00813043
0.0083457
0.00845793
0.00841223
0.00815107
0.00762027
0.00677713
0.00559784
0.00408857
0.00229957
0.000336114
-0.00163421
-0.00339108
-0.00469031
-0.00529925
-0.00502897
-0.00375527
-0.00143504
0.00190078
0.00616028
0.0112045
0.0168663
0.0229632
0.0293127
0.0357347
0.0420547
0.0481136
0.053778
0.0589229
0.0634249
0.0671843
0.0701453
0.0722897
0.0736151
0.074126
0.0738395
0.0727925
0.0710416
0.0686579
0.0657238
0.0623301
0.0585761
0.0545672
0.0504105
0.0462086
0.0420539
0.0380234
0.0341775
0.0305592
0.0271964
0.0241034
0.021284
0.0187339
0.0164425
0.0143954
0.0125755
0.0109646
0.00954384
0.00829489
0.00719998
0.00624244
0.00540677
0.0046788
0.00404566
0.00349575
0.00301872
0.00260533
0.00224745
0.00193786
0.00167024
0.00143906
0.00123946
0.00106722
0.000918653
0.000790563
0.000680165
0.00058505
0.000503125
0.000432583
0.000371858
0.000319596
0.000274628
0.000235945
0.000202675
0.000174066
0.00014947
0.000128328
0.000110159
9.45457e-05
8.11323e-05
6.96104e-05
5.97149e-05
5.12177e-05
4.39222e-05
3.76597e-05
3.22846e-05
2.76721e-05
2.37144e-05
2.03193e-05
1.74072e-05
1.49098e-05
1.27685e-05
1.09327e-05
9.35914e-06
8.01059e-06
6.85507e-06
5.86513e-06
5.01718e-06
4.29099e-06
3.66919e-06
3.13687e-06
2.68124e-06
2.29133e-06
1.95771e-06
1.67231e-06
1.42821e-06
1.21946e-06
1.04098e-06
8.88417e-07
7.58027e-07
6.46611e-07
5.51421e-07
4.70105e-07
4.00656e-07
3.41366e-07
2.90784e-07
2.47673e-07
2.10965e-07
1.79731e-07
1.53155e-07
1.30531e-07
1.11263e-07
9.48601e-08
8.09215e-08
6.90982e-08
5.90512e-08
5.04223e-08
4.28396e-08
3.59656e-08
2.9575e-08
2.36307e-08
1.83135e-08
1.39749e-08
1.10091e-08
9.6749e-09
9.92964e-09
1.13432e-08
1.31406e-08
1.43776e-08
1.42065e-08
1.21456e-08
8.26215e-09
3.19557e-09
-1.99591e-09
-6.12679e-09
-8.22607e-09
-7.82325e-09
-5.09011e-09
-7.9535e-10
3.9112e-09
7.81667e-09
9.96878e-09
9.91198e-09
7.77437e-09
4.19177e-09
1.03212e-10
-3.51457e-09
-5.89553e-09
-6.65116e-09
-5.821e-09
-3.80855e-09
-1.23452e-09
1.2428e-09
3.08932e-09
4.00093e-09
3.93602e-09
3.07928e-09
1.75809e-09
3.40703e-10
-8.55359e-10
-1.62482e-09
-1.89744e-09
-1.72485e-09
-1.24245e-09
-6.20786e-10
-2.01717e-11
4.41688e-10
7.04808e-10
7.65522e-10
6.63036e-10
4.6006e-10
2.23383e-10
8.75312e-12
-1.47767e-10
-2.31848e-10
-2.47736e-10
-2.12071e-10
-1.46884e-10
-7.35177e-11
-8.51546e-12
3.82608e-11
6.35524e-11
6.92974e-11
6.06044e-11
4.37283e-11
2.44677e-11
7.17674e-12
-5.6073e-12
-1.30494e-11
-1.5603e-11
-1.4483e-11
-1.11697e-11
-7.03426e-12
-3.11615e-12
-4.4465e-14
1.93354e-12
2.86068e-12
2.95594e-12
2.50884e-12
1.79954e-12
1.0506e-12
4.07723e-13
-5.77091e-14
-3.33224e-13
-4.44803e-13
-4.3724e-13
-3.58716e-13
-2.50814e-13
-1.43708e-13
-5.53516e-14
6.7933e-15
4.28231e-14
5.72963e-14
5.6603e-14
4.7092e-14
3.39822e-14
2.09279e-14
1.00438e-14
2.18992e-15
-2.64382e-15
-4.9653e-15
-5.48067e-15
-4.88959e-15
-3.77021e-15
-2.53507e-15
-1.43462e-15
-5.86836e-16
-1.61979e-17
3.0879e-16
4.45404e-16
4.5571e-16
3.94221e-16
3.02398e-16
2.07822e-16
1.26034e-16
6.35256e-17
2.08406e-17
-4.78166e-18
-1.74464e-17
-2.13349e-17
-2.0015e-17
-1.61716e-17
-1.16043e-17
-7.36695e-18
-3.95847e-18
-1.51066e-18
5.61662e-20
9.19043e-19
1.27801e-18
1.3141e-18
1.17066e-18
9.49661e-19
7.1617e-19
5.06366e-19
3.36071e-19
2.08219e-19
1.18626e-19
6.00127e-20
2.45172e-20
5.06836e-21
-4.02857e-21
-6.99055e-21
-6.71489e-21
-5.04473e-21
-3.04987e-21
-1.27471e-21