# vtk DataFile Version 2.0
FlowField
ASCII
DATASET STRUCTURED_GRID
DIMENSIONS 1602 1 52
POINTS 83304 float
0 0 0
0.1 0 0
0.2 0 0
0.3 0 0
0.4 0 0
0.5 0 0
0.6 0 0
0.7 0 0
0.8 0 0
0.9 0 0
1 0 0
1.1 0 0
1.2 0 0
1.3 0 0
1.4 0 0
1.5 0 0
1.6 0 0
1.7 0 0
1.8 0 0
1.9 0 0
2 0 0
2.1 0 0
2.2 0 0
2.3 0 0
2.4 0 0
2.5 0 0
2.6 0 0
2.7 0 0
2.8 0 0
2.9 0 0
3 0 0
3.1 0 0
3.2 0 0
3.3 0 0
3.4 0 0
3.5 0 0
3.6 0 0
3.7 0 0
3.8 0 0
3.9 0 0
4 0 0
4.1 0 0
4.2 0 0
4.3 0 0
4.4 0 0
4.5 0 0
4.6 0 0
4.7 0 0
4.8 0 0
4.9 0 0
5 0 0
5.1 0 0
5.2 0 0
5.3 0 0
5.4 0 0
5.5 0 0
5.6 0 0
5.7 0 0
5.8 0 0
5.9 0 0
6 0 0
6.1 0 0
6.2 0 0
6.3 0 0
6.4 0 0
6.5 0 0
6.6 0 0
6.7 0 0
6.8 0 0
6.9 0 0
7 0 0
7.1 0 0
7.2 0 0
7.3 0 0
7.4 0 0
7.5 0 0
7.6 0 0
7.7 0 0
7.8 0 0
7.9 0 0
8 0 0
8.1 0 0
8.2 0 0
8.3 0 0
8.4 0 0
8.5 0 0
8.6 0 0
8.7 0 0
8.8 0 0
8.9 0 0
9 0 0
9.1 0 0
9.2 0 0
9.3 0 0
9.4 0 0
9.5 0 0
9.6 0 0
9.7 0 0
9.8 0 0
9.9 0 0
10 0 0
10.1 0 0
10.2 0 0
10.3 0 0
10.4 0 0
10.5 0 0
10.6 0 0
10.7 0 0
10.8 0 0
10.9 0 0
11 0 0
11.1 0 0
11.2 0 0
11.3 0 0
11.4 0 0
11.5 0 0
11.6 0 0
11.7 0 0
11.8 0 0
11.9 0 0
12 0 0
12.1 0 0
12.2 0 0
12.3 0 0
12.4 0 0
12.5 0 0
12.6 0 0
12.7 0 0
12.8 0 0
12.9 0 0
13 0 0
13.1 0 0
13.2 0 0
13.3 0 0
13.4 0 0
13.5 0 0
13.6 0 0
13.7 0 0
13.8 0 0
13.9 0 0
14 0 0
14.1 0 0
14.2 0 0
14.3 0 0
14.4 0 0
14.5 0 0
14.6 0 0
14.7 0 0
14.8 0 0
14.9 0 0
15 0 0
15.1 0 0
15.2 0 0
15.3 0 0
15.4 0 0
15.5 0 0
15.6 0 0
15.7 0 0
15.8 0 0
15.9 0 0
16 0 0
16.1 0 0
16.2 0 0
16.3 0 0
16.4 0 0
16.5 0 0
16.6 0 0
16.7 0 0
16.8 0 0
16.9 0 0
17 0 0
17.1 0 0
17.2 0 0
17.3 0 0
17.4 0 0
17.5 0 0
17.6 0 0
17.7 0 0
17.8 0 0
17.9 0 0
18 0 0
18.1 0 0
18.2 0 0
18.3 0 0
18.4 0 0
18.5 0 0
18.6 0 0
18.7 0 0
18.8 0 0
18.9 0 0
19 0 0
19.1 0 0
19.2 0 0
19.3 0 0
19.4 0 0
19.5 0 0
19.6 0 0
19.7 0 0
19.8 0 0
19.9 0 0
20 0 0
20.1 0 0
20.2 0 0
20.3 0 0
20.4 0 0
20.5 0 0
20.6 0 0
20.7 0 0
20.8 0 0
20.9 0 0
21 0 0
21.1 0 0
21.2 0 0
21.3 0 0
21.4 0 0
21.5 0 0
21.6 0 0
21.7 0 0
21.8 0 0
21.9 0 0
22 0 0
22.1 0 0
22.2 0 0
22.3 0 0
22.4 0 0
22.5 0 0
22.6 0 0
22.7 0 0
22.8 0 0
22.9 0 0
23 0 0
23.1 0 0
23.2 0 0
23.3 0 0
23.4 0 0
23.5 0 0
23.6 0 0
23.7 0 0
23.8 0 0
23.9 0 0
24 0 0
24.1 0 0
24.2 0 0
24.3 0 0
24.4 0 0
24.5 0 0
24.6 0 0
24.7 0 0
24.8 0 0
24.9 0 0
25 0 0
25.1 0 0
25.2 0 0
25.3 0 0
25.4 0 0
25.5 0 0
25.6 0 0
25.7 0 0
25.8 0 0
25.9 0 0
26 0 0
26.1 0 0
26.2 0 0
26.3 0 0
26.4 0 0
26.5 0 0
26.6 0 0
26.7 0 0
26.8 0 0
26.9 0 0
27 0 0
27.1 0 0
27.2 0 0
27.3 0 0
27.4 0 0
27.5 0 0
27.6 0 0
27.7 0 0
27.8 0 0
27.9 0 0
28 0 0
28.1 0 0
28.2 0 0
28.3 0 0
28.4 0 0
28.5 0 0
28.6 0 0
28.7 0 0
28.8 0 0
28.9 0 0
29 0 0
29.1 0 0
29.2 0 0
29.3 0 0
29.4 0 0
29.5 0 0
29.6 0 0
29.7 0 0
29.8 0 0
29.9 0 0
30 0 0
30.1 0 0
30.2 0 0
30.3 0 0
30.4 0 0
30.5 0 0
30.6 0 0
30.7 0 0
30.8 0 0
30.9 0 0
31 0 0
31.1 0 0
31.2 0 0
31.3 0 0
31.4 0 0
31.5 0 0
31.6 0 0
31.7 0 0
31.8 0 0
31.9 0 0
32 0 0
32.1 0 0
32.2 0 0
32.3 0 0
32.4 0 0
32.5 0 0
32.6 0 0
32.7 0 0
32.8 0 0
32.9 0 0
33 0 0
33.1 0 0
33.2 0 0
33.3 0 0
33.4 0 0
33.5 0 0
33.6 0 0
33.7 0 0
33.8 0 0
33.9 0 0
34 0 0
34.1 0 0
34.2 0 0
34.3 0 0
34.4 0 0
34.5 0 0
34.6 0 0
34.7 0 0
34.8 0 0
34.9 0 0
35 0 0
35.1 0 0
35.2 0 0
35.3 0 0
35.4 0 0
35.5 0 0
35.6 0 0
35.7 0 0
35.8 0 0
35.9 0 0
36 0 0
36.1 0 0
36.2 0 0
36.3 0 0
36.4 0 0
36.5 0 0
36.6 0 0
36.7 0 0
36.8 0 0
36.9 0 0
37 0 0
37.1 0 0
37.2 0 0
37.3 0 0
37.4 0 0
37.5 0 0
37.6 0 0
37.7 0 0
37.8 0 0
37.9 0 0
38 0 0
38.1 0 0
38.2 0 0
38.3 0 0
38.4 0 0
38.5 0 0
38.6 0 0
38.7 0 0
38.8 0 0
38.9 0 0
39 0 0
39.1 0 0
39.2 0 0
39.3 0 0
39.4 0 0
39.5 0 0
39.6 0 0
39.7 0 0
39.8 0 0
39.9 0 0
40 0 0
40.1 0 0
40.2 0 0
40.3 0 0
40.4 0 0
40.5 0 0
40.6 0 0
40.7 0 0
40.8 0 0
40.9 0 0
41 0 0
41.1 0 0
41.2 0 0
41.3 0 0
41.4 0 0
41.5 0 0
41.6 0 0
41.7 0 0
41.8 0 0
41.9 0 0
42 0 0
42.1 0 0
42.2 0 0
42.3 0 0
42.4 0 0
42.5 0 0
42.6 0 0
42.7 0 0
42.8 0 0
42.9 0 0
43 0 0
43.1 0 0
43.2 0 0
43.3 0 0
43.4 0 0
43.5 0 0
43.6 0 0
43.7 0 0
43.8 0 0
43.9 0 0
44 0 0
44.1 0 0
44.2 0 0
44.3 0 0
44.4 0 0
44.5 0 0
44.6 0 0
44.7 0 0
44.8 0 0
44.9 0 0
45 0 0
45.1 0 0
45.2 0 0
45.3 0 0
45.4 0 0
45.5 0 0
45.6 0 0
45.7 0 0
45.8 0 0
45.9 0 0
46 0 0
46.1 0 0
46.2 0 0
46.3 0 0
46.4 0 0
46.5 0 0
46.6 0 0
46.7 0 0
46.8 0 0
46.9 0 0
47 0 0
47.1 0 0
47.2 0 0
47.3 0 0
47.4 0 0
47.5 0 0
47.6 0 0
47.7 0 0
47.8 0 0
47.9 0 0
48 0 0
48.1 0 0
48.2 0 0
48.3 0 0
48.4 0 0
48.5 0 0
48.6 0 0
48.7 0 0
48.8 0 0
48.9 0 0
49 0 0
49.1 0 0
49.2 0 0
49.3 0 0
49.4 0 0
49.5 0 0
49.6 0 0
49.7 0 0
49.8 0 0
49.9 0 0
50 0 0
50.1 0 0
50.2 0 0
50.3 0 0
50.4 0 0
50.5 0 0
50.6 0 0
50.7 0 0
50.8 0 0
50.9 0 0
51 0 0
51.1 0 0
51.2 0 0
51.3 0 0
51.4 0 0
51.5 0 0
51.6 0 0
51.7 0 0
51.8 0 0
51.9 0 0
52 0 0
52.1 0 0
52.2 0 0
52.3 0 0
52.4 0 0
52.5 0 0
52.6 0 0
52.7 0 0
52.8 0 0
52.9 0 0
53 0 0
53.1 0 0
53.2 0 0
53.3 0 0
53.4 0 0
53.5 0 0
53.6 0 0
53.7 0 0
53.8 0 0
53.9 0 0
54 0 0
54.1 0 0
54.2 0 0
54.3 0 0
54.4 0 0
54.5 0 0
54.6 0 0
54.7 0 0
54.8 0 0
54.9 0 0
55 0 0
55.1 0 0
55.2 0 0
55.3 0 0
55.4 0 0
55.5 0 0
55.6 0 0
55.7 0 0
55.8 0 0
55.9 0 0
56 0 0
56.1 0 0
56.2 0 0
56.3 0 0
56.4 0 0
56.5 0 0
56.6 0 0
56.7 0 0
56.8 0 0
56.9 0 0
57 0 0
57.1 0 0
57.2 0 0
57.3 0 0
57.4 0 0
57.5 0 0
57.6 0 0
57.7 0 0
57.8 0 0
57.9 0 0
58 0 0
58.1 0 0
58.2 0 0
58.3 0 0
58.4 0 0
58.5 0 0
58.6 0 0
58.7 0 0
58.8 0 0
58.9 0 0
59 0 0
59.1 0 0
59.2 0 0
59.3 0 0
59.4 0 0
59.5 0 0
59.6 0 0
59.7 0 0
59.8 0 0
59.9 0 0
60 0 0
60.1 0 0
60.2 0 0
60.3 0 0
60.4 0 0
60.5 0 0
60.6 0 0
60.7 0 0
60.8 0 0
60.9 0 0
61 0 0
61.1 0 0
61.2 0 0
61.3 0 0
61.4 0 0
61.5 0 0
61.6 0 0
61.7 0 0
61.8 0 0
61.9 0 0
62 0 0
62.1 0 0
62.2 0 0
62.3 0 0
62.4 0 0
62.5 0 0
62.6 0 0
62.7 0 0
62.8 0 0
62.9 0 0
63 0 0
63.1 0 0
63.2 0 0
63.3 0 0
63.4 0 0
63.5 0 0
63.6 0 0
63.7 0 0
63.8 0 0
63.9 0 0
64 0 0
64.1 0 0
64.2 0 0
64.3 0 0
64.4 0 0
64.5 0 0
64.6 0 0
64.7 0 0
64.8 0 0
64.9 0 0
65 0 0
65.1 0 0
65.2 0 0
65.3 0 0
65.4 0 0
65.5 0 0
65.6 0 0
65.7 0 0
65.8 0 0
65.9 0 0
66 0 0
66.1 0 0
66.2 0 0
66.3 0 0
66.4 0 0
66.5 0 0
66.6 0 0
66.7 0 0
66.8 0 0
66.9 0 0
67 0 0
67.1 0 0
67.2 0 0
67.3 0 0
67.4 0 0
67.5 0 0
67.6 0 0
67.7 0 0
67.8 0 0
67.9 0 0
68 0 0
68.1 0 0
68.2 0 0
68.3 0 0
68.4 0 0
68.5 0 0
68.6 0 0
68.7 0 0
68.8 0 0
68.9 0 0
69 0 0
69.1 0 0
69.2 0 0
69.3 0 0
69.4 0 0
69.5 0 0
69.6 0 0
69.7 0 0
69.8 0 0
69.9 0 0
70 0 0
70.1 0 0
70.2 0 0
70.3 0 0
70.4 0 0
70.5 0 0
70.6 0 0
70.7 0 0
70.8 0 0
70.9 0 0
71 0 0
71.1 0 0
71.2 0 0
71.3 0 0
71.4 0 0
71.5 0 0
71.6 0 0
71.7 0 0
71.8 0 0
71.9 0 0
72 0 0
72.1 0 0
72.2 0 0
72.3 0 0
72.4 0 0
72.5 0 0
72.6 0 0
72.7 0 0
72.8 0 0
72.9 0 0
73 0 0
73.1 0 0
73.2 0 0
73.3 0 0
73.4 0 0
73.5 0 0
73.6 0 0
73.7 0 0
73.8 0 0
73.9 0 0
74 0 0
74.1 0 0
74.2 0 0
74.3 0 0
74.4 0 0
74.5 0 0
74.6 0 0
74.7 0 0
74.8 0 0
74.9 0 0
75 0 0
75.1 0 0
75.2 0 0
75.3 0 0
75.4 0 0
75.5 0 0
75.6 0 0
75.7 0 0
75.8 0 0
75.9 0 0
76 0 0
76.1 0 0
76.2 0 0
76.3 0 0
76.4 0 0
76.5 0 0
76.6 0 0
76.7 0 0
76.8 0 0
76.9 0 0
77 0 0
77.1 0 0
77.2 0 0
77.3 0 0
77.4 0 0
77.5 0 0
77.6 0 0
77.7 0 0
77.8 0 0
77.9 0 0
78 0 0
78.1 0 0
78.2 0 0
78.3 0 0
78.4 0 0
78.5 0 0
78.6 0 0
78.7 0 0
78.8 0 0
78.9 0 0
79 0 0
79.1 0 0
79.2 0 0
79.3 0 0
79.4 0 0
79.5 0 0
79.6 0 0
79.7 0 0
79.8 0 0
79.9 0 0
80 0 0
80.1 0 0
80.2 0 0
80.3 0 0
80.4 0 0
80.5 0 0
80.6 0 0
80.7 0 0
80.8 0 0
80.9 0 0
81 0 0
81.1 0 0
81.2 0 0
81.3 0 0
81.4 0 0
81.5 0 0
81.6 0 0
81.7 0 0
81.8 0 0
81.9 0 0
82 0 0
82.1 0 0
82.2 0 0
82.3 0 0
82.4 0 0
82.5 0 0
82.6 0 0
82.7 0 0
82.8 0 0
82.9 0 0
83 0 0
83.1 0 0
83.2 0 0
83.3 0 0
83.4 0 0
83.5 0 0
83.6 0 0
83.7 0 0
83.8 0 0
83.9 0 0
84 0 0
84.1 0 0
84.2 0 0
84.3 0 0
84.4 0 0
84.5 0 0
84.6 0 0
84.7 0 0
84.8 0 0
84.9 0 0
85 0 0
85.1 0 0
85.2 0 0
85.3 0 0
85.4 0 0
85.5 0 0
85.6 0 0
85.7 0 0
85.8 0 0
85.9 0 0
86 0 0
86.1 0 0
86.2 0 0
86.3 0 0
86.4 0 0
86.5 0 0
86.6 0 0
86.7 0 0
86.8 0 0
86.9 0 0
87 0 0
87.1 0 0
87.2 0 0
87.3 0 0
87.4 0 0
87.5 0 0
87.6 0 0
87.7 0 0
87.8 0 0
87.9 0 0
88 0 0
88.1 0 0
88.2 0 0
88.3 0 0
88.4 0 0
88.5 0 0
88.6 0 0
88.7 0 0
88.8 0 0
88.9 0 0
89 0 0
89.1 0 0
89.2 0 0
89.3 0 0
89.4 0 0
89.5 0 0
89.6 0 0
89.7 0 0
89.8 0 0
89.9 0 0
90 0 0
90.1 0 0
90.2 0 0
90.3 0 0
90.4 0 0
90.5 0 0
90.6 0 0
90.7 0 0
90.8 0 0
90.9 0 0
91 0 0
91.1 0 0
91.2 0 0
91.3 0 0
91.4 0 0
91.5 0 0
91.6 0 0
91.7 0 0
91.8 0 0
91.9 0 0
92 0 0
92.1 0 0
92.2 0 0
92.3 0 0
92.4 0 0
92.5 0 0
92.6 0 0
92.7 0 0
92.8 0 0
92.9 0 0
93 0 0
93.1 0 0
93.2 0 0
93.3 0 0
93.4 0 0
93.5 0 0
93.6 0 0
93.7 0 0
93.8 0 0
93.9 0 0
94 0 0
94.1 0 0
94.2 0 0
94.3 0 0
94.4 0 0
94.5 0 0
94.6 0 0
94.7 0 0
94.8 0 0
94.9 0 0
95 0 0
95.1 0 0
95.2 0 0
95.3 0 0
95.4 0 0
95.5 0 0
95.6 0 0
95.7 0 0
95.8 0 0
95.9 0 0
96 0 0
96.1 0 0
96.2 0 0
96.3 0 0
96.4 0 0
96.5 0 0
96.6 0 0
96.7 0 0
96.8 0 0
96.9 0 0
97 0 0
97.1 0 0
97.2 0 0
97.3 0 0
97.4 0 0
97.5 0 0
97.6 0 0
97.7 0 0
97.8 0 0
97.9 0 0
98 0 0
98.1 0 0
98.2 0 0
98.3 0 0
98.4 0 0
98.5 0 0
98.6 0 0
98.7 0 0
98.8 0 0
98.9 0 0
99 0 0
99.1 0 0
99.2 0 0
99.3 0 0
99.4 0 0
99.5 0 0
99.6 0 0
99.7 0 0
99.8 0 0
99.9 0 0
100 0 0
100.1 0 0
100.2 0 0
100.3 0 0
100.4 0 0
100.5 0 0
100.6 0 0
100.7 0 0
100.8 0 0
100.9 0 0
101 0 0
101.1 0 0
101.2 0 0
101.3 0 0
101.4 0 0
101.5 0 0
101.6 0 0
101.7 0 0
101.8 0 0
101.9 0 0
102 0 0
102.1 0 0
102.2 0 0
102.3 0 0
102.4 0 0
102.5 0 0
102.6 0 0
102.7 0 0
102.8 0 0
102.9 0 0
103 0 0
103.1 0 0
103.2 0 0
103.3 0 0
103.4 0 0
103.5 0 0
103.6 0 0
103.7 0 0
103.8 0 0
103.9 0 0
104 0 0
104.1 0 0
104.2 0 0
104.3 0 0
104.4 0 0
104.5 0 0
104.6 0 0
104.7 0 0
104.8 0 0
104.9 0 0
105 0 0
105.1 0 0
105.2 0 0
105.3 0 0
105.4 0 0
105.5 0 0
105.6 0 0
105.7 0 0
105.8 0 0
105.9 0 0
106 0 0
106.1 0 0
106.2 0 0
106.3 0 0
106.4 0 0
106.5 0 0
106.6 0 0
106.7 0 0
106.8 0 0
106.9 0 0
107 0 0
107.1 0 0
107.2 0 0
107.3 0 0
107.4 0 0
107.5 0 0
107.6 0 0
107.7 0 0
107.8 0 0
107.9 0 0
108 0 0
108.1 0 0
108.2 0 0
108.3 0 0
108.4 0 0
108.5 0 0
108.6 0 0
108.7 0 0
108.8 0 0
108.9 0 0
109 0 0
109.1 0 0
109.2 0 0
109.3 0 0
109.4 0 0
109.5 0 0
109.6 0 0
109.7 0 0
109.8 0 0
109.9 0 0
110 0 0
110.1 0 0
110.2 0 0
110.3 0 0
110.4 0 0
110.5 0 0
110.6 0 0
110.7 0 0
110.8 0 0
110.9 0 0
111 0 0
111.1 0 0
111.2 0 0
111.3 0 0
111.4 0 0
111.5 0 0
111.6 0 0
111.7 0 0
111.8 0 0
111.9 0 0
112 0 0
[...]
POINT_DATA 83304

SCALARS pressure float 1
LOOKUP_TABLE default
0
0
0
0
0
0
0
0
0
0
0
0
0
0
0
0
0
0
0
0
0
0
0
0
0
0
0
0
0
0
0
0
0
0
0
0
0
0
0
0
0
0
0
0
0
0
0
0
0
0
0
0
0
0
0
0
0
0
0
0
0
0
0
0
0
0
0
0
0
0
0
0
0
0
0
0
0
0
0
0
0
0
0
0
0
0
0
0
0
0
0
0
0
0
0
0
0
0
0
0
0
0
0
0
0
0
0
0
0
0
0
0
0
0
0
0
0
0
0
0
0
0
0
0
0
0
0
0
0
0
0
0
0
0
0
0
0
0
0
0
0
0
0
0
0
0
0
0
0
0
0
0
0
0
0
0
0
0
0
0
0
0
0
0
0
0
0
0
0
0
0
0
0
0
0
0
0
0
0
0
0
0
0
0
0
0
0
0
0
0
0
0
0
0
0
0
0
0
0
0
0
0
0
0
0
0
0
0
0
0
0
0
0
0
0
0
0
0
0
0
0
0
0
0
0
0
0
0
0
0
0
0
0
0
0
0
0
0
0
0
0
0
0
0
0
0
0
0
0
0
0
0
0
0
0
0
0
0
0
0
0
0
0
0
0
0
0
0
0
0
0
0
0
0
0
0
0
0
0
0
0
0
0
0
0
0
0
0
0
0
0
0
0
0
0
0
0
0
0
0
0
0
0
0
0
0
0
0
0
0
0
0
0
0
0
0
0
0
0
0
0
0
0
0
0
0
0
0
0
0
0
0
0
0
0
0
0
0
0
0
0
0
0
0
0
0
0
0
0
0
0
0
0
0
0
0
0
0
0
0
0
0
0
0
0
0
0
0
0
0
0
0
0
0
0
0
0
0
0
0
0
0
0
0
0
0
0
0
0
0
0
0
0
0
0
0
0
0
0
0
0
0
0
0
0
0
0
0
0
0
0
0
0
0
0
0
0
0
0
0
0
0
0
0
0
0
0
0
0
0
0
0
0
0
0
0
0
0
0
0
0
0
0
0
0
0
0
0
0
0
0
0
0
0
0
0
0
0
0
0
0
0
0
0
0
0
0
0
0
0
0
0
0
0
0
0
0
0
0
0
0
0
0
0
0
0
0
0
0
0
0
0
0
0
0
0
0
0
0
0
0
0
0
0
0
0
0
0
0
0
0
0
0
0
0
0
0
0
0
0
0
0
0
0
0
0
0
0
0
0
0
0
0
0
0
0
0
0
0
0
0
0
0
0
0
0
0
0
0
0
0
0
0
0
0
0
0
0
0
0
0
0
0
0
0
0
0
0
0
0
0
0
0
0
0
0
0
0
0
0
0
0
0
0
0
0
0
0
0
0
0
0
0
0
0
0
0
0
0
0
0
0
0
0
0
0
0
0
0
0
0
0
0
0
0
0
0
0
0
0
0
0
0
0
0
0
0
0
0
0
0
0
0
0
0
0
0
0
0
0
0
0
0
0
0
0
0
0
0
0
0
0
0
0
0
0
0
0
0
0
0
0
0
0
0
0
0
0
0
0
0
0
0
0
0
0
0
0
0
0
0
0
0
0
0
0
0
0
0
0
0
0
0
0
0
0
0
0
0
0
0
0
0
0
0
0
0
0
0
0
0
0
0
0
0
0
0
0
0
0
0
0
0
0
0
0
0
0
0
0
0
0
0
0
0
0
0
0
0
0
0
0
0
0
0
0
0
0
0
0
0
0
0
0
0
0
0
0
0
0
0
0
0
0
0
0
0
0
0
0
0
0
0
0
0
0
0
0
0
0
0
0
0
0
0
0
0
0
0
0
0
0
0
0
0
0
0
0
0
0
0
0
0
0
0
0
0
0
0
0
0
0
0
0
0
0
0
0
0
0
0
0
0
0
0
0
0
0
0
0
0
0
0
0
0
0
0
0
0
0
0
0
0
0
0
0
0
0
0
0
0
0
0
0
0
0
0
0
0
0
0
0
0
0
0
0
0
0
0
0
0
0
0
0
0
0
0
0
0
0
0
0
0
0
0
0
0
0
0
0
0
0
0
0
0
0
0
0
0
0
0
0
0
0
0
0
0
0
0
0
0
0
0
0
0
0
0
0
0
0
0
0
0
0
0
0
0
0
0
0
0
0
0
0
0
0
0
0
0
0
0
0
0
0
0
0
0
0
0
0
0
0
0
0
0
0
0
0
0
0
0
0
0
0
0
0
0
0
0
0
0
0
0
0
0
0
0
0
0
0
0
0
0
0
0
0
0
0
0
0
0
0
0
0
0
0
0
0
0
0
0
0
0
0
0
0
0
0
0
0
0
0
0
0
0
0
0
0
0
0
0
0
0
0
0
0
0
0
0
0
0
0
0
0
0
0
0
0
0
0
0
0
0
0
0
0
0
0
0
0
0
0
0
0
0
0
0
0
0
0
0
0
0
0
0
0
0
0
0
0
0
0
0
0
0
0
0
0
0
0
0
0
0
0
0
0
0
0
0
0
0
0
0
0
0
0
0
0
0
0
0
0
0
0
0
0
0
0
0
0
0
0
0
0
0
0
0
0
0
0
0
0
0
0
0
0
0
0
0
0
0
0
0
0
0
0
0
0
0
0
0
0
0
0
0
0
0
0
0
0
0
0
0
0
0
0
0
0
0
0
0
0
0
0
0
0
0
0
0
0
0
0
0
0
0
0
0
0
0
0
0
0
0
0
0
0
0
0
0
0
0
0
0
0
0
0
0
0
0
0
0
0
0
0
0
0
0
0
0
0
0
0
0
0
0
0
0
0
0
0
0
0
0
0
0
0
0
0
0
0
0
0
0
0
0
0
0
0
0
0
0
0
0
0
0
0
0
0
0
0
0
0
0
0
0
0
0
0
0
0
0
0
0
0
0
0
0
0
0
0
0
0
0
0
0
0
0
0
0
0
0
0
0
0
0
0
0
0
0
0
0
0
0
0
0
0
0
0
0
0
0
0
0
0
0
0
0
0
0
0
0
0
0
0
0
0
0
0
0
0
0
0
0
0
0
0
0
0
0
0
0
0
0
0
0
0
0
0
0
0
0
0
0
0
0
0
0
0
0
0
0
0
0
0
0
0
0
0
0
0
0
0
0
0
0
0
0
0
0
0
0
0
0
0
0
0
0
0
0
0
0
0
0
0
0
0
0
0
0
0
0
0
0
0
0
0
0
0
0
0
0
0
0
0
0
0
0
0
0
0
0
0
0
0
0
0
0
0
0
0
0
0
0
0
0
0
0
0
0
0
0
0
0
0
0
0
0
0
0
0
0
0
0
0
0
0
0
0
0
0
0
0
0
0
0
0
0
0
0
0
0
0
0
0
0
0
0
0
0
0
0
0
0
0
0
0
0
0
0
0
0
0
0
0
0
0
0
0
0
0
0
0
0
0
0
0
0
0
0
0
0
0
0
0
0
0
0
0
0
0
0
0
0
0
0
0
0
0
0
0
0
0
0
0
0
0
0
0
0
0
0
0
0
0
0
0
0
0
0
0
0
0
0
0
0
0
0
0
0
0
0
0
0
0
0
0
0
0
0
0
0
0
0
0
0
0
0
0
0
0
0
0
0
0
0
0
0
0
0
0
0
0
0
0
0
0
0
0
0
0
0
0
0
0
0
0
0
0
0
0
0
0
0
0.0776415
0.052903
0.0436505
0.0357426
0.03048
0.0271088
0.0248019
0.023116
0.0218008
0.0207277
0.0198235
0.0190436
0.0183596
0.0177519
0.0172066
0.0167134
0.0162643
0.0158532
0.0154749
0.0151254
0.0148012
0.0144993
0.0142174
0.0139533
0.0137051
0.0134714
0.0132506
0.0130416
0.0128434
0.0126549
0.0124753
0.0123039
0.0121401
0.0119833
0.0118328
0.0116884
0.0115494
0.0114156
0.0112866
0.0111621
0.0110418
0.0109254
0.0108128
0.0107037
0.0105979
0.0104952
0.0103955
0.0102987
0.0102045
0.0101129
0.0100238
0.00993702
0.0098525
0.00977015
0.00968989
0.00961163
0.00953532
0.00946088
0.00938825
0.00931738
0.00924821
0.0091807
0.0091148
0.00905046
0.00898765
0.00892632
0.00886645
0.00880799
0.00875091
0.00869519
0.00864078
0.00858767
0.00853583
0.00848523
0.00843584
0.00838765
0.00834062
0.00829473
0.00824997
0.0082063
0.00816372
0.00812218
0.00808168
0.0080422
0.00800371
0.00796619
0.00792963
0.007894
0.00785928
0.00782546
0.00779252
0.00776043
0.00772918
0.00769876
0.00766914
0.00764032
0.00761228
0.007585
0.00755848
0.00753271
0.00750766
0.00748334
0.00745971
0.00743677
0.00741449
0.00739285
0.00737181
0.00735135
0.00733142
0.00731199
0.00729301
0.00727445
0.00725628
0.00723849
0.00722106
0.00720402
0.00718739
0.00717124
0.00715564
0.00714066
0.00712641
0.00711295
0.00710034
0.00708859
0.00707764
0.00706737
0.00705756
0.00704792
0.0070381
0.0070277
0.00701633
0.00700368
0.00698961
0.00697421
0.00695791
0.00694158
0.00692655
0.00691466
0.00690819
0.00690974
0.006922
0.00694743
0.00698784
0.00704388
0.00711447
0.00719619
0.00728281
0.00736477
0.00742902
0.00745903
0.00743521
0.00733583
0.00713841
0.00682187
0.00636925
0.00577121
0.0050301
0.00416433
0.00321268
0.00223759
0.00132645
0.000589849
0.000155763
0.000159671
0.000731796
0.00198308
0.00399283
0.00679928
0.0103966
0.0147364
0.0197301
0.0252584
0.0311843
0.0373549
0.0436
0.0497515
0.0556598
0.0611713
0.0661051
0.0702877
0.0736227
0.0761095
0.077789
0.0786843
0.0787934
0.0781195
0.0766972
0.0745958
0.0719083
0.0687384
0.0651921
0.0613735
0.0573809
0.0533049
0.0492259
0.0452124
0.0413204
0.0375935
0.0340635
0.0307516
0.0276701
0.0248235
0.0222106
0.0198254
0.0176586
0.0156987
0.0139325
0.012346
0.0109253
0.00965616
0.00852505
0.00751897
0.00662569
0.00583383
0.00513286
0.00451312
0.00396581
0.00348296
0.00305736
0.00268252
0.00235263
0.00206249
0.00180747
0.00158344
0.00138673
0.00121409
0.00106264
0.000929824
0.000813401
0.00071138
0.000622007
0.000543739
0.000475215
0.000415237
0.000362755
0.000316842
0.000276685
0.000241572
0.000210875
0.000184045
0.000160599
0.000140115
0.000122222
0.000106595
9.29508e-05
8.10389e-05
7.06417e-05
6.15681e-05
5.36511e-05
4.67445e-05
4.07204e-05
3.54668e-05
3.08861e-05
2.68928e-05
2.3412e-05
2.03785e-05
1.77353e-05
1.54326e-05
1.34267e-05
1.16798e-05
1.01585e-05
8.83412e-06
7.68119e-06
6.67772e-06
5.80447e-06
5.04466e-06
4.38365e-06
3.80869e-06
3.30865e-06
2.87384e-06
2.4958e-06
2.16717e-06
1.88154e-06
1.63332e-06
1.41764e-06
1.23027e-06
1.0675e-06
9.26141e-07
8.03384e-07
6.96799e-07
6.0427e-07
5.23954e-07
4.54249e-07
3.93762e-07
3.41282e-07
2.95755e-07
2.56267e-07
2.2202e-07
1.92323e-07
1.66575e-07
1.44255e-07
1.24909e-07
1.08142e-07
9.36136e-08
8.10259e-08
7.01213e-08
6.06762e-08
5.24963e-08
4.5413e-08
3.92803e-08
3.39712e-08
2.93758e-08
2.53987e-08
2.19571e-08
1.89794e-08
1.64034e-08
1.41751e-08
1.22479e-08
1.05814e-08
9.14039e-09
7.89461e-09
6.81775e-09
5.88701e-09
5.08267e-09
4.38766e-09
3.7872e-09
3.26849e-09
2.82047e-09
2.43354e-09
2.09942e-09
1.81094e-09
1.5619e-09
1.34694e-09
1.16141e-09
1.00131e-09
8.63168e-10
7.43988e-10
6.41182e-10
5.52511e-10
4.76041e-10
4.10102e-10
3.53251e-10
3.04242e-10
2.61999e-10
2.25592e-10
1.94219e-10
1.67188e-10
1.439e-10
1.2384e-10
1.06562e-10
9.16833e-11
7.88716e-11
6.78413e-11
5.8346e-11
5.01731e-11
4.31394e-11
3.70869e-11
3.18793e-11
2.73994e-11
2.35459e-11
2.02316e-11
1.73816e-11
1.4931e-11
1.28242e-11
1.10132e-11
9.45669e-12
8.11905e-12
6.96967e-12
5.98219e-12
5.13392e-12
4.40533e-12
3.77962e-12
3.24234e-12
2.78104e-12
2.38504e-12
2.04514e-12
1.75343e-12
1.50312e-12
1.28835e-12
1.10411e-12
9.46071e-13
8.10534e-13
6.94309e-13
5.94659e-13
5.09234e-13
4.36014e-13
3.73269e-13
3.19512e-13
2.73468e-13
2.34042e-13
2.00293e-13
1.7141e-13
1.46694e-13
1.25539e-13
1.07423e-13
9.1895e-14
7.85721e-14
6.71283e-14
5.72891e-14
4.88234e-14
4.15367e-14
3.52663e-14
2.98797e-14
2.52748e-14
2.13805e-14
1.81532e-14
1.55653e-14
1.35857e-14
1.21546e-14
1.11591e-14
1.04228e-14
9.7158e-15
8.79232e-15
7.45082e-15
5.60199e-15
3.32347e-15
8.77591e-16
-1.32367e-15
-2.80875e-15
-3.17501e-15
-2.22305e-15
-5.58292e-17
2.8942e-15
5.9303e-15
8.2431e-15
9.11558e-15
8.12771e-15
5.30124e-15
1.13669e-15
-3.47774e-15
-7.47008e-15
-9.85228e-15
-9.98142e-15
-7.74233e-15
-3.59849e-15
1.5072e-15
6.37877e-15
9.86298e-15
1.11367e-14
9.9106e-15
6.49615e-15
1.72052e-15
-3.28618e-15
-7.37329e-15
-9.64774e-15
-9.67757e-15
-7.57314e-15
-3.93186e-15
3.31991e-16
4.22291e-15
6.90307e-15
7.87542e-15
7.07108e-15
4.82785e-15
1.77481e-15
-1.3402e-15
-3.8334e-15
-5.23356e-15
-5.36472e-15
-4.3513e-15
-2.55361e-15
-4.57459e-16
1.45051e-15
2.79096e-15
3.3608e-15
3.15262e-15
2.32736e-15
1.15355e-15
-6.80965e-17
-1.07517e-15
-1.69411e-15
-1.86279e-15
-1.62476e-15
-1.10137e-15
-4.51911e-16
1.67244e-16
6.35344e-16
8.86052e-16
9.10943e-16
7.4989e-16
4.73033e-16
1.59954e-16
-1.18877e-16
-3.14849e-16
-4.06627e-16
-3.98669e-16
-3.14648e-16
-1.88308e-16
-5.42719e-17
5.92351e-17
1.34664e-16
1.66204e-16
1.58181e-16
1.21739e-16
7.09427e-17
1.92244e-17
-2.31529e-17
-5.03533e-17
-6.10088e-17
-5.7344e-17
-4.38028e-17
-2.5586e-17
-7.42338e-18
7.23349e-18
1.65451e-17
2.0206e-17
1.90837e-17
1.47236e-17
8.85874e-18
3.0201e-18
-1.70287e-18
-4.74632e-18
-6.02892e-18
-5.82688e-18
-4.61596e-18
-2.92122e-18
-1.20192e-18
2.16335e-19
1.16311e-18
1.60824e-18
1.62448e-18
1.34198e-18
9.05814e-19
4.44037e-19
4.89845e-20
-2.28697e-19
-3.76204e-19
-4.08801e-19
-3.57899e-19
-2.59962e-19
-1.48093e-19
-4.70152e-20
2.87178e-20
7.40145e-20
9.10107e-20
8.6242e-20
6.79562e-20
4.40227e-20
2.06267e-20
1.72404e-21
-1.09058e-20
-1.72248e-20
-1.83343e-20
-1.58755e-20
-1.15435e-20
-6.76298e-21
-2.52915e-21
6.16403e-22
2.51927e-21
3.29967e-21
3.23123e-21
2.6364e-21
1.81133e-21
9.83188e-22
2.95555e-22
-1.85838e-22
-4.55615e-22
-5.47087e-22
-5.11861e-22
-4.03897e-22
-2.69202e-22
-1.4084e-22
-3.81344e-23
3.14103e-23
6.88551e-23
8.03284e-23
7.40014e-23
5.78845e-23
3.85133e-23
2.04069e-23
6.08832e-24
-3.55695e-24
-8.78216e-24
-1.04827e-23
-9.7872e-24
-7.77277e-24
-5.30328e-24
-2.96955e-24
-1.10034e-24
1.86486e-25
9.17769e-25
1.20136e-24
1.17482e-24
9.70242e-25
6.94456e-25
4.21736e-25
1.94987e-25
3.16998e-26
-6.83144e-26
-1.15486e-25
-1.24461e-25
-1.09913e-25
-8.41267e-26
-5.59929e-26
-3.10008e-26
-1.17917e-26
1.05364e-27
8.22595e-27
1.10285e-26
1.09021e-26
9.13253e-27
6.71042e-27
4.29977e-27
2.27358e-27
7.81066e-28
-1.78297e-28
-6.88941e-28
-8.68844e-28
-8.35951e-28
-6.89456e-28
-5.02386e-28
-3.21668e-28
-1.72343e-28
-6.33854e-29
6.51852e-30
4.41534e-29
5.82518e-29
5.72514e-29
4.8111e-29
3.58958e-29
2.38481e-29
1.37128e-29
6.14863e-30
1.1219e-30
-1.77169e-30
-3.07521e-30
-3.32348e-30
-2.96494e-30
-2.33293e-30
-1.64806e-30
-1.03675e-30
-5.5576e-31
-2.1593e-31
-1.92852e-33
1.13218e-31
1.58622e-31
1.60151e-31
1.38064e-31
1.06615e-31
7.47431e-32
4.72487e-32
2.60296e-32
1.11725e-32
1.7971e-33
-3.35552e-33
-5.55821e-33
-5.90443e-33
-5.23386e-33
-4.13111e-33
-2.96267e-33
-1.92831e-33
-1.11221e-33
-5.26466e-34
-1.44142e-34
7.795e-35
1.85128e-34
2.17259e-34
2.05656e-34
1.72727e-34
1.33088e-34
9.52562e-35
6.34015e-35
3.88672e-35
2.13522e-35
9.75149e-36
2.69972e-36
-1.11404e-36
-2.79313e-36
-3.18414e-36
-2.88765e-36
-2.29773e-36
-1.65054e-36
-1.07068e-36
-6.0987e-37
-2.76514e-37
-5.63702e-38
7.39585e-38
1.39073e-37
1.60671e-37
1.55929e-37
1.37333e-37
1.13268e-37
8.88739e-38
6.6937e-38
4.86572e-38
3.42544e-38
2.34079e-38
1.55524e-38
1.00617e-38
6.35106e-39
3.92468e-39
2.38967e-39
1.45056e-39
8.95001e-40
5.76612e-40
3.98546e-40
2.99414e-40
2.42112e-40
2.05438e-40
1.78128e-40
1.54794e-40
1.33285e-40
1.13067e-40
9.42783e-41
7.72331e-41
6.2187e-41
4.92568e-41
3.84179e-41
2.95351e-41
2.24026e-41
1.67802e-41
1.24218e-41
9.0944e-42
6.5895e-42
4.72794e-42
3.36093e-42
2.36822e-42
1.65479e-42
1.14707e-42
7.89062e-43
5.38824e-43
3.65361e-43
2.46066e-43
1.64641e-43
1.09466e-43
7.23382e-44
4.75205e-44
3.10382e-44
2.01598e-44
1.30231e-44
8.36842e-45
5.34972e-45
3.40276e-45
2.15375e-45
1.35665e-45
8.50548e-46
5.30795e-46
3.29756e-46
2.03955e-46
1.25599e-46
7.70169e-47
4.70287e-47
2.85989e-47
1.73211e-47
1.04488e-47
6.27845e-48
3.758e-48
2.24081e-48
1.33113e-48
7.87821e-49
4.64563e-49
2.72957e-49
1.59808e-49
9.32335e-50
5.42046e-50
3.14058e-50
1.81346e-50
1.04364e-50
5.98618e-51
3.42234e-51
1.95023e-51
1.10778e-51
6.27248e-52
3.54043e-52
1.99213e-52
1.11748e-52
6.24928e-53
3.48421e-53
1.93675e-53
1.07337e-53
5.93116e-54
3.26784e-54
1.79523e-54
9.834e-55
5.37155e-55
2.92575e-55
1.58911e-55
8.60718e-56
4.64905e-56
2.50423e-56
1.34524e-56
7.2069e-57
3.85061e-57
2.05188e-57
1.09049e-57
5.78025e-58
3.05588e-58
1.61137e-58
8.47493e-59
4.44591e-59
2.32637e-59
1.21422e-59
6.32151e-60
3.2829e-60
1.70065e-60
8.78815e-61
4.53015e-61
2.32952e-61
1.19499e-61
6.11524e-62
3.12189e-62
1.58996e-62
8.0783e-63
4.09475e-63
2.07069e-63
1.04468e-63
5.25829e-64
2.64058e-64
1.32298e-64
6.6132e-65
3.29822e-65
1.6412e-65
8.14824e-66
4.03636e-66
1.995e-66
9.83855e-67
4.84124e-67
2.37697e-67
1.16449e-67
5.69248e-68
2.77665e-68
1.35145e-68
6.56361e-69
3.18092e-69
1.53827e-69
7.42319e-70
3.5746e-70
1.7177e-70
8.23671e-71
3.94141e-71
1.88211e-71
8.96881e-72
4.26508e-72
2.02407e-72
9.58591e-73
4.53058e-73
2.13693e-73
1.00588e-73
4.72523e-74
2.21528e-74
1.03648e-74
4.83982e-75
2.25544e-75
1.049e-75
4.8692e-76
2.25573e-76
1.04296e-76
4.81277e-77
2.21656e-77
1.01888e-77
4.67438e-78
2.14037e-78
9.78186e-79
4.46193e-79
2.0314e-79
9.23089e-80
4.18667e-80
1.89529e-80
8.56374e-81
3.86223e-81
1.7386e-81
7.81186e-82
3.5035e-82
1.56836e-82
7.0079e-83
3.12558e-83
1.39149e-83
6.18347e-84
2.7428e-84
1.21442e-84
5.36729e-85
2.36787e-85
1.04275e-85
4.58376e-86
2.01135e-86
8.81003e-87
3.85208e-87
1.68129e-87
7.32527e-88
3.18594e-88
1.38321e-88
5.99487e-89
2.59364e-89
1.12017e-89
4.82952e-90
2.0786e-90
8.93072e-91
3.83049e-91
1.64012e-91
7.01056e-92
2.99149e-92
1.27433e-92
5.41924e-93
2.30069e-93
9.75089e-94
4.1257e-94
1.74269e-94
7.34878e-95
3.09374e-95
1.30025e-95
5.45565e-96
2.28532e-96
9.55712e-97
3.99016e-97
1.66317e-97
6.92105e-98
2.87538e-98
1.19263e-98
4.93868e-99
2.04178e-99
8.42756e-100
3.4729e-100
1.42883e-100
5.86907e-101
2.40692e-101
9.85498e-102
4.02862e-102
1.64424e-102
6.70009e-103
2.72589e-103
1.10725e-103
4.49055e-104
1.81831e-104
7.35111e-105
2.96726e-105
1.19586e-105
4.81199e-106
1.93327e-106
7.75508e-107
3.10603e-107
1.24209e-107
4.9594e-108
1.97714e-108
7.87003e-109
3.12788e-109
1.24125e-109
4.91817e-110
1.94575e-110
7.68617e-111
3.03162e-111
1.19394e-111
4.69496e-112
1.84344e-112
7.22721e-113
2.82919e-113
1.10587e-113
4.31612e-114
1.68204e-114
6.54538e-115
2.54324e-115
9.86724e-116
3.82263e-116
1.47873e-116
5.71181e-117
2.20303e-117
8.4846e-118
3.26292e-118
1.25299e-118
4.80456e-119
1.83962e-119
7.03353e-120
2.68528e-120
1.02371e-120
3.89706e-121
1.4814e-121
5.62319e-122
2.13142e-122
8.06744e-123
3.04916e-123
1.15082e-123
4.33724e-124
1.63231e-124
6.13448e-125
2.30217e-125
8.62748e-126
3.22863e-126
1.20654e-126
4.5025e-127
1.67787e-127
6.24386e-128
2.32029e-128
8.61048e-129
3.19086e-129
1.18082e-129
4.36374e-130
1.6104e-130
5.9348e-131
2.18415e-131
8.02711e-132
2.94605e-132
1.07976e-132
3.952e-133
1.44449e-133
5.27255e-134
1.92192e-134
6.99616e-135
2.54329e-135
9.23299e-136
3.34736e-136
1.21193e-136
4.38195e-137
1.58224e-137
5.70553e-138
2.05464e-138
7.38919e-139
2.65386e-139
9.51873e-140
3.4096e-140
1.21969e-140
4.35734e-141
1.5546e-141
5.53911e-142
1.97101e-142
7.00435e-143
2.48585e-143
8.81072e-144
3.11874e-144
1.1025e-144
3.89235e-145
1.37239e-145
4.83258e-146
1.69948e-146
5.96884e-147
2.09364e-147
7.33417e-148
2.5659e-148
8.9654e-149
3.12853e-149
1.09032e-149
3.79498e-150
1.3192e-150
4.57988e-151
1.58798e-151
5.49897e-152
1.90181e-152
6.569e-153
2.26611e-153
7.80754e-154
2.68657e-154
9.2328e-155
3.16899e-155
1.08633e-155
3.71929e-156
1.27178e-156
4.34329e-157
1.48144e-157
5.04669e-158
1.71707e-158
5.83483e-159
1.98029e-159
6.71262e-160
2.27257e-160
7.68429e-161
2.5951e-161
8.75326e-162
2.94883e-162
9.92195e-163
3.33434e-163
1.11916e-163
3.75181e-164
1.2562e-164
4.20097e-165
1.40317e-165
4.68102e-166
1.55971e-166
5.19065e-167
1.72533e-167
5.72794e-168
1.89933e-168
6.29039e-169
2.08081e-169
6.87488e-170
2.26869e-170
7.47767e-171
2.46171e-171
8.09447e-172
2.6584e-172
8.7204e-173
2.85716e-173
9.35011e-174
3.05621e-174
9.9778e-175
3.25366e-175
1.05974e-175
3.44754e-176
1.12024e-176
3.63579e-177
1.17863e-177
3.81633e-178
1.23426e-178
3.98711e-179
1.28648e-179
4.14609e-180
1.33466e-180
4.29137e-181
1.37821e-181
4.42113e-182
1.4166e-182
4.53375e-183
1.44933e-183
4.62779e-184
1.47598e-184
4.70205e-185
1.49622e-185
4.75559e-186
1.50979e-186
4.78772e-187
1.51651e-187
4.79808e-188
1.51633e-188
4.78657e-189
1.50925e-189
4.75341e-190
1.4954e-190
4.69912e-191
1.47497e-191
4.62446e-192
1.44827e-192
4.5305e-193
1.41565e-193
4.41851e-194
1.37756e-194
4.28999e-195
1.33449e-195
4.14658e-196
1.287e-196
3.99011e-197
1.23568e-197
3.82248e-198
1.18114e-198
3.64565e-199
1.124e-199
3.46162e-200
1.06491e-200
3.27238e-201
1.00447e-201
3.07987e-202
9.433e-203
2.88596e-203
8.81972e-204
2.69242e-204
8.21025e-205
2.50089e-205
7.60955e-206
2.31286e-206
7.02212e-207
2.12968e-207
6.4519e-208
1.9525e-208
5.90232e-209
1.78232e-209
5.37623e-210
1.61995e-210
4.87593e-211
1.46604e-211
4.40318e-212
1.32106e-212
3.95922e-213
1.18531e-213
3.54479e-214
1.05897e-214
3.1602e-215
9.42065e-216
2.80534e-216
8.34501e-217
2.47975e-217
7.36083e-218
2.18266e-218
6.46524e-219
1.91304e-219
5.65465e-220
1.66966e-220
4.92485e-221
1.45111e-221
4.27122e-222
1.25588e-222
3.68881e-223
1.08236e-223
3.17249e-224
9.28916e-225
2.71706e-225
7.93904e-226
2.31731e-226
6.75693e-227
1.96817e-227
5.72698e-228
1.66471e-228
4.83393e-229
1.40221e-229
4.06329e-230
1.17624e-230
3.40144e-231
9.82615e-232
2.83568e-232
8.17496e-233
2.35433e-233
6.77337e-234
1.94669e-234
5.58914e-235
1.60306e-235
4.59314e-236
1.3147e-236
3.75927e-237
1.07383e-237
3.06429e-238
8.73538e-239
2.48767e-239
7.07726e-240
2.01139e-240
5.71072e-241
1.61974e-241
4.58947e-242
1.2991e-242
3.67355e-243
1.03775e-243
2.92861e-244
8.25652e-245
2.32539e-245
6.54277e-246
1.83905e-246
5.16405e-247
1.44862e-247
4.05963e-248
1.13654e-248
3.17872e-249
8.88156e-250
2.4791e-250
6.91305e-251
1.92581e-251
5.35957e-252
1.4901e-252
4.1388e-253
1.14843e-253
3.18352e-254
8.81621e-255
2.4391e-255
6.74144e-256
1.86144e-256
5.13475e-257
1.41503e-257
3.89571e-258
1.07148e-258
2.94413e-259
8.08179e-260
2.21634e-260
6.07213e-261
1.66197e-261
4.5445e-262
1.24144e-262
3.38804e-263
9.23737e-264
2.51611e-264
6.84684e-265
1.86137e-265
5.05542e-266
1.37171e-266
3.71836e-267
1.00699e-267
2.72444e-268
7.36404e-269
1.98856e-269
5.36471e-270
1.4459e-270
3.89328e-271
1.04732e-271
2.81468e-272
7.55727e-273
2.02716e-273
5.43249e-274
1.45445e-274
3.89031e-275
1.03958e-275
2.77539e-276
7.40251e-277
1.97253e-277
5.25119e-278
1.39663e-278
3.71107e-279
9.85161e-280
2.61281e-280
6.92308e-281
1.83267e-281
4.84688e-282
1.28066e-282
3.38065e-283
8.91579e-284
2.34917e-284
6.18393e-285
1.62633e-285
4.27318e-286
1.12173e-286
2.94187e-287
7.70823e-288
2.01783e-288
5.27728e-289
1.37891e-289
3.59964e-290
9.38818e-291
2.44627e-291
6.36833e-292
1.65633e-292
4.30398e-293
1.11736e-293
2.89813e-294
7.51009e-295
1.94435e-295
5.02927e-296
1.29969e-296
3.35564e-297
8.65598e-298
2.2308e-298
5.74394e-299
1.47762e-299
3.79771e-300
9.75183e-301
2.50182e-301
6.41257e-302
1.64216e-302
4.20149e-303
1.07399e-303
2.74287e-304
6.9987e-305
1.78418e-305
4.5443e-306
1.15639e-306
2.94004e-307
7.46812e-308
1.8953e-308
4.80571e-309
1.21744e-309
3.08139e-310
7.79218e-311
1.96872e-311
4.96957e-312
1.25334e-312
3.15813e-313
7.9507e-314
1.99983e-314
5.0257e-315
1.26187e-315
3.16553e-316
7.93402e-317
1.98681e-317
4.9709e-318
1.2426e-318
3.10347e-319
7.74497e-320
1.93081e-320
4.8122e-321
1.19564e-321
2.91499e-322
6.91692e-323
9.88131e-324
0
0
0
0
0
0
0
0
0
0
0
0
0
0
0
0
0
0
0
0
0
0
0
0
0
0
0
0
0
0
0
0
0
0
0
0
0
0
0
0
0
0
0
0
0
0
0
0
0
0
0
0
0
0
0
0
0
0
0
0
0
0
0
0
0
0
0
0
0
0
0
0
0
0
0
0
0
0
0
0
0
0
0
0
0
0
0
0
0
0
0
0
0
0
0
0
0
0
0
0
0
0
0
0
0
0
0
0
0
0
0
0
0
0
0
0
0
0
0
0
0
0
0
0
0
0
0
0
0
0
0
0
0
0
0
0
0
0
0
0
0
0
0
0
0
0
0
0
0
0
0
0
0
0
0
0
0
0
0
0
0
0
0
0
0
0
0
0
0
0
0
0
0
0
0
0
0
0
0
0
0
0
0
0
0
0
0
0
0
0
0
0
0
0
0
0
0
0
0
0
0
0
0
0
0
0
0
0
0
0
0
0
0
0
0
0
0
0
0
0
0
0
0
0
0
0
0
0
0
0
0
0
0
0
0
0
0
0
0
0
0
0
0
0
0
0
0
0
0
0
0