# vtk DataFile Version 2.0
FlowField
ASCII
DATASET STRUCTURED_GRID
DIMENSIONS 1602 1 52
POINTS 83304 float
0 0 0
0.1 0 0
0.2 0 0
0.3 0 0
0.4 0 0
0.5 0 0
0.6 0 0
0.7 0 0
0.8 0 0
0.9 0 0
1 0 0
1.1 0 0
1.2 0 0
1.3 0 0
1.4 0 0
1.5 0 0
1.6 0 0
1.7 0 0
1.8 0 0
1.9 0 0
2 0 0
2.1 0 0
2.2 0 0
2.3 0 0
2.4 0 0
2.5 0 0
2.6 0 0
2.7 0 0
2.8 0 0
2.9 0 0
3 0 0
3.1 0 0
3.2 0 0
3.3 0 0
3.4 0 0
3.5 0 0
3.6 0 0
3.7 0 0
3.8 0 0
3.9 0 0
4 0 0
4.1 0 0
4.2 0 0
4.3 0 0
4.4 0 0
4.5 0 0
4.6 0 0
4.7 0 0
4.8 0 0
4.9 0 0
5 0 0
5.1 0 0
5.2 0 0
5.3 0 0
5.4 0 0
5.5 0 0
5.6 0 0
5.7 0 0
5.8 0 0
5.9 0 0
6 0 0
6.1 0 0
6.2 0 0
6.3 0 0
6.4 0 0
6.5 0 0
6.6 0 0
6.7 0 0
6.8 0 0
6.9 0 0
7 0 0
7.1 0 0
7.2 0 0
7.3 0 0
7.4 0 0
7.5 0 0
7.6 0 0
7.7 0 0
7.8 0 0
7.9 0 0
8 0 0
8.1 0 0
8.2 0 0
8.3 0 0
8.4 0 0
8.5 0 0
8.6 0 0
8.7 0 0
8.8 0 0
8.9 0 0
9 0 0
9.1 0 0
9.2 0 0
9.3 0 0
9.4 0 0
9.5 0 0
9.6 0 0
9.7 0 0
9.8 0 0
9.9 0 0
10 0 0
10.1 0 0
10.2 0 0
10.3 0 0
10.4 0 0
10.5 0 0
10.6 0 0
10.7 0 0
10.8 0 0
10.9 0 0
11 0 0
11.1 0 0
11.2 0 0
11.3 0 0
11.4 0 0
11.5 0 0
11.6 0 0
11.7 0 0
11.8 0 0
11.9 0 0
12 0 0
12.1 0 0
12.2 0 0
12.3 0 0
12.4 0 0
12.5 0 0
12.6 0 0
12.7 0 0
12.8 0 0
12.9 0 0
13 0 0
13.1 0 0
13.2 0 0
13.3 0 0
13.4 0 0
13.5 0 0
13.6 0 0
13.7 0 0
13.8 0 0
13.9 0 0
14 0 0
14.1 0 0
14.2 0 0
14.3 0 0
14.4 0 0
14.5 0 0
14.6 0 0
14.7 0 0
14.8 0 0
14.9 0 0
15 0 0
15.1 0 0
15.2 0 0
15.3 0 0
15.4 0 0
15.5 0 0
15.6 0 0
15.7 0 0
15.8 0 0
15.9 0 0
16 0 0
16.1 0 0
16.2 0 0
16.3 0 0
16.4 0 0
16.5 0 0
16.6 0 0
16.7 0 0
16.8 0 0
16.9 0 0
17 0 0
17.1 0 0
17.2 0 0
17.3 0 0
17.4 0 0
17.5 0 0
17.6 0 0
17.7 0 0
17.8 0 0
17.9 0 0
18 0 0
18.1 0 0
18.2 0 0
18.3 0 0
18.4 0 0
18.5 0 0
18.6 0 0
18.7 0 0
18.8 0 0
18.9 0 0
19 0 0
19.1 0 0
19.2 0 0
19.3 0 0
19.4 0 0
19.5 0 0
19.6 0 0
19.7 0 0
19.8 0 0
19.9 0 0
20 0 0
20.1 0 0
20.2 0 0
20.3 0 0
20.4 0 0
20.5 0 0
20.6 0 0
20.7 0 0
20.8 0 0
20.9 0 0
21 0 0
21.1 0 0
21.2 0 0
21.3 0 0
21.4 0 0
21.5 0 0
21.6 0 0
21.7 0 0
21.8 0 0
21.9 0 0
22 0 0
22.1 0 0
22.2 0 0
22.3 0 0
22.4 0 0
22.5 0 0
22.6 0 0
22.7 0 0
22.8 0 0
22.9 0 0
23 0 0
23.1 0 0
23.2 0 0
23.3 0 0
23.4 0 0
23.5 0 0
23.6 0 0
23.7 0 0
23.8 0 0
23.9 0 0
24 0 0
24.1 0 0
24.2 0 0
24.3 0 0
24.4 0 0
24.5 0 0
24.6 0 0
24.7 0 0
24.8 0 0
24.9 0 0
25 0 0
25.1 0 0
25.2 0 0
25.3 0 0
25.4 0 0
25.5 0 0
25.6 0 0
25.7 0 0
25.8 0 0
25.9 0 0
26 0 0
26.1 0 0
26.2 0 0
26.3 0 0
26.4 0 0
26.5 0 0
26.6 0 0
26.7 0 0
26.8 0 0
26.9 0 0
27 0 0
27.1 0 0
27.2 0 0
27.3 0 0
27.4 0 0
27.5 0 0
27.6 0 0
27.7 0 0
27.8 0 0
27.9 0 0
28 0 0
28.1 0 0
28.2 0 0
28.3 0 0
28.4 0 0
28.5 0 0
28.6 0 0
28.7 0 0
28.8 0 0
28.9 0 0
29 0 0
29.1 0 0
29.2 0 0
29.3 0 0
29.4 0 0
29.5 0 0
29.6 0 0
29.7 0 0
29.8 0 0
29.9 0 0
30 0 0
30.1 0 0
30.2 0 0
30.3 0 0
30.4 0 0
30.5 0 0
30.6 0 0
30.7 0 0
30.8 0 0
30.9 0 0
31 0 0
31.1 0 0
31.2 0 0
31.3 0 0
31.4 0 0
31.5 0 0
31.6 0 0
31.7 0 0
31.8 0 0
31.9 0 0
32 0 0
32.1 0 0
32.2 0 0
32.3 0 0
32.4 0 0
32.5 0 0
32.6 0 0
32.7 0 0
32.8 0 0
32.9 0 0
33 0 0
33.1 0 0
33.2 0 0
33.3 0 0
33.4 0 0
33.5 0 0
33.6 0 0
33.7 0 0
33.8 0 0
33.9 0 0
34 0 0
34.1 0 0
34.2 0 0
34.3 0 0
34.4 0 0
34.5 0 0
34.6 0 0
34.7 0 0
34.8 0 0
34.9 0 0
35 0 0
35.1 0 0
35.2 0 0
35.3 0 0
35.4 0 0
35.5 0 0
35.6 0 0
35.7 0 0
35.8 0 0
35.9 0 0
36 0 0
36.1 0 0
36.2 0 0
36.3 0 0
36.4 0 0
36.5 0 0
36.6 0 0
36.7 0 0
36.8 0 0
36.9 0 0
37 0 0
37.1 0 0
37.2 0 0
37.3 0 0
37.4 0 0
37.5 0 0
37.6 0 0
37.7 0 0
37.8 0 0
37.9 0 0
38 0 0
38.1 0 0
38.2 0 0
38.3 0 0
38.4 0 0
38.5 0 0
38.6 0 0
38.7 0 0
38.8 0 0
38.9 0 0
39 0 0
39.1 0 0
39.2 0 0
39.3 0 0
39.4 0 0
39.5 0 0
39.6 0 0
39.7 0 0
39.8 0 0
39.9 0 0
40 0 0
40.1 0 0
40.2 0 0
40.3 0 0
40.4 0 0
40.5 0 0
40.6 0 0
40.7 0 0
40.8 0 0
40.9 0 0
41 0 0
41.1 0 0
41.2 0 0
41.3 0 0
41.4 0 0
41.5 0 0
41.6 0 0
41.7 0 0
41.8 0 0
41.9 0 0
42 0 0
42.1 0 0
42.2 0 0
42.3 0 0
42.4 0 0
42.5 0 0
42.6 0 0
42.7 0 0
42.8 0 0
42.9 0 0
43 0 0
43.1 0 0
43.2 0 0
43.3 0 0
43.4 0 0
43.5 0 0
43.6 0 0
43.7 0 0
43.8 0 0
43.9 0 0
44 0 0
44.1 0 0
44.2 0 0
44.3 0 0
44.4 0 0
44.5 0 0
44.6 0 0
44.7 0 0
44.8 0 0
44.9 0 0
45 0 0
45.1 0 0
45.2 0 0
45.3 0 0
45.4 0 0
45.5 0 0
45.6 0 0
45.7 0 0
45.8 0 0
45.9 0 0
46 0 0
46.1 0 0
46.2 0 0
46.3 0 0
46.4 0 0
46.5 0 0
46.6 0 0
46.7 0 0
46.8 0 0
46.9 0 0
47 0 0
47.1 0 0
47.2 0 0
47.3 0 0
47.4 0 0
47.5 0 0
47.6 0 0
47.7 0 0
47.8 0 0
47.9 0 0
48 0 0
48.1 0 0
48.2 0 0
48.3 0 0
48.4 0 0
48.5 0 0
48.6 0 0
48.7 0 0
48.8 0 0
48.9 0 0
49 0 0
49.1 0 0
49.2 0 0
49.3 0 0
49.4 0 0
49.5 0 0
49.6 0 0
49.7 0 0
49.8 0 0
49.9 0 0
50 0 0
50.1 0 0
50.2 0 0
50.3 0 0
50.4 0 0
50.5 0 0
50.6 0 0
50.7 0 0
50.8 0 0
50.9 0 0
51 0 0
51.1 0 0
51.2 0 0
51.3 0 0
51.4 0 0
51.5 0 0
51.6 0 0
51.7 0 0
51.8 0 0
51.9 0 0
52 0 0
52.1 0 0
52.2 0 0
52.3 0 0
52.4 0 0
52.5 0 0
52.6 0 0
52.7 0 0
52.8 0 0
52.9 0 0
53 0 0
53.1 0 0
53.2 0 0
53.3 0 0
53.4 0 0
53.5 0 0
53.6 0 0
53.7 0 0
53.8 0 0
53.9 0 0
54 0 0
54.1 0 0
54.2 0 0
54.3 0 0
54.4 0 0
54.5 0 0
54.6 0 0
54.7 0 0
54.8 0 0
54.9 0 0
55 0 0
55.1 0 0
55.2 0 0
55.3 0 0
55.4 0 0
55.5 0 0
55.6 0 0
55.7 0 0
55.8 0 0
55.9 0 0
56 0 0
56.1 0 0
56.2 0 0
56.3 0 0
56.4 0 0
56.5 0 0
56.6 0 0
56.7 0 0
56.8 0 0
56.9 0 0
57 0 0
57.1 0 0
57.2 0 0
57.3 0 0
57.4 0 0
57.5 0 0
57.6 0 0
57.7 0 0
57.8 0 0
57.9 0 0
58 0 0
58.1 0 0
58.2 0 0
58.3 0 0
58.4 0 0
58.5 0 0
58.6 0 0
58.7 0 0
58.8 0 0
58.9 0 0
59 0 0
59.1 0 0
59.2 0 0
59.3 0 0
59.4 0 0
59.5 0 0
59.6 0 0
59.7 0 0
59.8 0 0
59.9 0 0
60 0 0
60.1 0 0
60.2 0 0
60.3 0 0
60.4 0 0
60.5 0 0
60.6 0 0
60.7 0 0
60.8 0 0
60.9 0 0
61 0 0
61.1 0 0
61.2 0 0
61.3 0 0
61.4 0 0
61.5 0 0
61.6 0 0
61.7 0 0
61.8 0 0
61.9 0 0
62 0 0
62.1 0 0
62.2 0 0
62.3 0 0
62.4 0 0
62.5 0 0
62.6 0 0
62.7 0 0
62.8 0 0
62.9 0 0
63 0 0
63.1 0 0
63.2 0 0
63.3 0 0
63.4 0 0
63.5 0 0
63.6 0 0
63.7 0 0
63.8 0 0
63.9 0 0
64 0 0
64.1 0 0
64.2 0 0
64.3 0 0
64.4 0 0
64.5 0 0
64.6 0 0
64.7 0 0
64.8 0 0
64.9 0 0
65 0 0
65.1 0 0
65.2 0 0
65.3 0 0
65.4 0 0
65.5 0 0
65.6 0 0
65.7 0 0
65.8 0 0
65.9 0 0
66 0 0
66.1 0 0
66.2 0 0
66.3 0 0
66.4 0 0
66.5 0 0
66.6 0 0
66.7 0 0
66.8 0 0
66.9 0 0
67 0 0
67.1 0 0
67.2 0 0
67.3 0 0
67.4 0 0
67.5 0 0
67.6 0 0
67.7 0 0
67.8 0 0
67.9 0 0
68 0 0
68.1 0 0
68.2 0 0
68.3 0 0
68.4 0 0
68.5 0 0
68.6 0 0
68.7 0 0
68.8 0 0
68.9 0 0
69 0 0
69.1 0 0
69.2 0 0
69.3 0 0
69.4 0 0
69.5 0 0
69.6 0 0
69.7 0 0
69.8 0 0
69.9 0 0
70 0 0
70.1 0 0
70.2 0 0
70.3 0 0
70.4 0 0
70.5 0 0
70.6 0 0
70.7 0 0
70.8 0 0
70.9 0 0
71 0 0
71.1 0 0
71.2 0 0
71.3 0 0
71.4 0 0
71.5 0 0
71.6 0 0
71.7 0 0
71.8 0 0
71.9 0 0
72 0 0
72.1 0 0
72.2 0 0
72.3 0 0
72.4 0 0
72.5 0 0
72.6 0 0
72.7 0 0
72.8 0 0
72.9 0 0
73 0 0
73.1 0 0
73.2 0 0
73.3 0 0
73.4 0 0
73.5 0 0
73.6 0 0
73.7 0 0
73.8 0 0
73.9 0 0
74 0 0
74.1 0 0
74.2 0 0
74.3 0 0
74.4 0 0
74.5 0 0
74.6 0 0
74.7 0 0
74.8 0 0
74.9 0 0
75 0 0
75.1 0 0
75.2 0 0
75.3 0 0
75.4 0 0
75.5 0 0
75.6 0 0
75.7 0 0
75.8 0 0
75.9 0 0
76 0 0
76.1 0 0
76.2 0 0
76.3 0 0
76.4 0 0
76.5 0 0
76.6 0 0
76.7 0 0
76.8 0 0
76.9 0 0
77 0 0
77.1 0 0
77.2 0 0
77.3 0 0
77.4 0 0
77.5 0 0
77.6 0 0
77.7 0 0
77.8 0 0
77.9 0 0
78 0 0
78.1 0 0
78.2 0 0
78.3 0 0
78.4 0 0
78.5 0 0
78.6 0 0
78.7 0 0
78.8 0 0
78.9 0 0
79 0 0
79.1 0 0
79.2 0 0
79.3 0 0
79.4 0 0
79.5 0 0
79.6 0 0
79.7 0 0
79.8 0 0
79.9 0 0
80 0 0
80.1 0 0
80.2 0 0
80.3 0 0
80.4 0 0
80.5 0 0
80.6 0 0
80.7 0 0
80.8 0 0
80.9 0 0
81 0 0
81.1 0 0
81.2 0 0
81.3 0 0
81.4 0 0
81.5 0 0
81.6 0 0
81.7 0 0
81.8 0 0
81.9 0 0
82 0 0
82.1 0 0
82.2 0 0
82.3 0 0
82.4 0 0
82.5 0 0
82.6 0 0
82.7 0 0
82.8 0 0
82.9 0 0
83 0 0
83.1 0 0
83.2 0 0
83.3 0 0
83.4 0 0
83.5 0 0
83.6 0 0
83.7 0 0
83.8 0 0
83.9 0 0
84 0 0
84.1 0 0
84.2 0 0
84.3 0 0
84.4 0 0
84.5 0 0
84.6 0 0
84.7 0 0
84.8 0 0
84.9 0 0
85 0 0
85.1 0 0
85.2 0 0
85.3 0 0
85.4 0 0
85.5 0 0
85.6 0 0
85.7 0 0
85.8 0 0
85.9 0 0
86 0 0
86.1 0 0
86.2 0 0
86.3 0 0
86.4 0 0
86.5 0 0
86.6 0 0
86.7 0 0
86.8 0 0
86.9 0 0
87 0 0
87.1 0 0
87.2 0 0
87.3 0 0
87.4 0 0
87.5 0 0
87.6 0 0
87.7 0 0
87.8 0 0
87.9 0 0
88 0 0
88.1 0 0
88.2 0 0
88.3 0 0
88.4 0 0
88.5 0 0
88.6 0 0
88.7 0 0
88.8 0 0
88.9 0 0
89 0 0
89.1 0 0
89.2 0 0
89.3 0 0
89.4 0 0
89.5 0 0
89.6 0 0
89.7 0 0
89.8 0 0
89.9 0 0
90 0 0
90.1 0 0
90.2 0 0
90.3 0 0
90.4 0 0
90.5 0 0
90.6 0 0
90.7 0 0
90.8 0 0
90.9 0 0
91 0 0
91.1 0 0
91.2 0 0
91.3 0 0
91.4 0 0
91.5 0 0
91.6 0 0
91.7 0 0
91.8 0 0
91.9 0 0
92 0 0
92.1 0 0
92.2 0 0
92.3 0 0
92.4 0 0
92.5 0 0
92.6 0 0
92.7 0 0
92.8 0 0
92.9 0 0
93 0 0
93.1 0 0
93.2 0 0
93.3 0 0
93.4 0 0
93.5 0 0
93.6 0 0
93.7 0 0
93.8 0 0
93.9 0 0
94 0 0
94.1 0 0
94.2 0 0
94.3 0 0
94.4 0 0
94.5 0 0
94.6 0 0
94.7 0 0
94.8 0 0
94.9 0 0
95 0 0
95.1 0 0
95.2 0 0
95.3 0 0
95.4 0 0
95.5 0 0
95.6 0 0
95.7 0 0
95.8 0 0
95.9 0 0
96 0 0
96.1 0 0
96.2 0 0
96.3 0 0
96.4 0 0
96.5 0 0
96.6 0 0
96.7 0 0
96.8 0 0
96.9 0 0
97 0 0
97.1 0 0
97.2 0 0
97.3 0 0
97.4 0 0
97.5 0 0
97.6 0 0
97.7 0 0
97.8 0 0
97.9 0 0
98 0 0
98.1 0 0
98.2 0 0
98.3 0 0
98.4 0 0
98.5 0 0
98.6 0 0
98.7 0 0
98.8 0 0
98.9 0 0
99 0 0
99.1 0 0
99.2 0 0
99.3 0 0
99.4 0 0
99.5 0 0
99.6 0 0
99.7 0 0
99.8 0 0
99.9 0 0
100 0 0
100.1 0 0
100.2 0 0
100.3 0 0
100.4 0 0
100.5 0 0
100.6 0 0
100.7 0 0
100.8 0 0
100.9 0 0
101 0 0
101.1 0 0
101.2 0 0
101.3 0 0
101.4 0 0
101.5 0 0
101.6 0 0
101.7 0 0
101.8 0 0
101.9 0 0
102 0 0
102.1 0 0
102.2 0 0
102.3 0 0
102.4 0 0
102.5 0 0
102.6 0 0
102.7 0 0
102.8 0 0
102.9 0 0
103 0 0
103.1 0 0
103.2 0 0
103.3 0 0
103.4 0 0
103.5 0 0
103.6 0 0
103.7 0 0
103.8 0 0
103.9 0 0
104 0 0
104.1 0 0
104.2 0 0
104.3 0 0
104.4 0 0
104.5 0 0
104.6 0 0
104.7 0 0
104.8 0 0
104.9 0 0
105 0 0
105.1 0 0
105.2 0 0
105.3 0 0
105.4 0 0
105.5 0 0
105.6 0 0
105.7 0 0
105.8 0 0
105.9 0 0
106 0 0
106.1 0 0
106.2 0 0
106.3 0 0
106.4 0 0
106.5 0 0
106.6 0 0
106.7 0 0
106.8 0 0
106.9 0 0
107 0 0
107.1 0 0
107.2 0 0
107.3 0 0
107.4 0 0
107.5 0 0
107.6 0 0
107.7 0 0
107.8 0 0
107.9 0 0
108 0 0
108.1 0 0
108.2 0 0
108.3 0 0
108.4 0 0
108.5 0 0
108.6 0 0
108.7 0 0
108.8 0 0
108.9 0 0
109 0 0
109.1 0 0
109.2 0 0
109.3 0 0
109.4 0 0
109.5 0 0
109.6 0 0
109.7 0 0
109.8 0 0
109.9 0 0
110 0 0
110.1 0 0
110.2 0 0
110.3 0 0
110.4 0 0
110.5 0 0
110.6 0 0
110.7 0 0
110.8 0 0
110.9 0 0
111 0 0
111.1 0 0
111.2 0 0
111.3 0 0
111.4 0 0
111.5 0 0
111.6 0 0
111.7 0 0
111.8 0 0
111.9 0 0
112 0 0
[...]
POINT_DATA 83304

SCALARS pressure float 1
LOOKUP_TABLE default
0
0
0
0
0
0
0
0
0
0
0
0
0
0
0
0
0
0
0
0
0
0
0
0
0
0
0
0
0
0
0
0
0
0
0
0
0
0
0
0
0
0
0
0
0
0
0
0
0
0
0
0
0
0
0
0
0
0
0
0
0
0
0
0
0
0
0
0
0
0
0
0
0
0
0
0
0
0
0
0
0
0
0
0
0
0
0
0
0
0
0
0
0
0
0
0
0
0
0
0
0
0
0
0
0
0
0
0
0
0
0
0
0
0
0
0
0
0
0
0
0
0
0
0
0
0
0
0
0
0
0
0
0
0
0
0
0
0
0
0
0
0
0
0
0
0
0
0
0
0
0
0
0
0
0
0
0
0
0
0
0
0
0
0
0
0
0
0
0
0
0
0
0
0
0
0
0
0
0
0
0
0
0
0
0
0
0
0
0
0
0
0
0
0
0
0
0
0
0
0
0
0
0
0
0
0
0
0
0
0
0
0
0
0
0
0
0
0
0
0
0
0
0
0
0
0
0
0
0
0
0
0
0
0
0
0
0
0
0
0
0
0
0
0
0
0
0
0
0
0
0
0
0
0
0
0
0
0
0
0
0
0
0
0
0
0
0
0
0
0
0
0
0
0
0
0
0
0
0
0
0
0
0
0
0
0
0
0
0
0
0
0
0
0
0
0
0
0
0
0
0
0
0
0
0
0
0
0
0
0
0
0
0
0
0
0
0
0
0
0
0
0
0
0
0
0
0
0
0
0
0
0
0
0
0
0
0
0
0
0
0
0
0
0
0
0
0
0
0
0
0
0
0
0
0
0
0
0
0
0
0
0
0
0
0
0
0
0
0
0
0
0
0
0
0
0
0
0
0
0
0
0
0
0
0
0
0
0
0
0
0
0
0
0
0
0
0
0
0
0
0
0
0
0
0
0
0
0
0
0
0
0
0
0
0
0
0
0
0
0
0
0
0
0
0
0
0
0
0
0
0
0
0
0
0
0
0
0
0
0
0
0
0
0
0
0
0
0
0
0
0
0
0
0
0
0
0
0
0
0
0
0
0
0
0
0
0
0
0
0
0
0
0
0
0
0
0
0
0
0
0
0
0
0
0
0
0
0
0
0
0
0
0
0
0
0
0
0
0
0
0
0
0
0
0
0
0
0
0
0
0
0
0
0
0
0
0
0
0
0
0
0
0
0
0
0
0
0
0
0
0
0
0
0
0
0
0
0
0
0
0
0
0
0
0
0
0
0
0
0
0
0
0
0
0
0
0
0
0
0
0
0
0
0
0
0
0
0
0
0
0
0
0
0
0
0
0
0
0
0
0
0
0
0
0
0
0
0
0
0
0
0
0
0
0
0
0
0
0
0
0
0
0
0
0
0
0
0
0
0
0
0
0
0
0
0
0
0
0
0
0
0
0
0
0
0
0
0
0
0
0
0
0
0
0
0
0
0
0
0
0
0
0
0
0
0
0
0
0
0
0
0
0
0
0
0
0
0
0
0
0
0
0
0
0
0
0
0
0
0
0
0
0
0
0
0
0
0
0
0
0
0
0
0
0
0
0
0
0
0
0
0
0
0
0
0
0
0
0
0
0
0
0
0
0
0
0
0
0
0
0
0
0
0
0
0
0
0
0
0
0
0
0
0
0
0
0
0
0
0
0
0
0
0
0
0
0
0
0
0
0
0
0
0
0
0
0
0
0
0
0
0
0
0
0
0
0
0
0
0
0
0
0
0
0
0
0
0
0
0
0
0
0
0
0
0
0
0
0
0
0
0
0
0
0
0
0
0
0
0
0
0
0
0
0
0
0
0
0
0
0
0
0
0
0
0
0
0
0
0
0
0
0
0
0
0
0
0
0
0
0
0
0
0
0
0
0
0
0
0
0
0
0
0
0
0
0
0
0
0
0
0
0
0
0
0
0
0
0
0
0
0
0
0
0
0
0
0
0
0
0
0
0
0
0
0
0
0
0
0
0
0
0
0
0
0
0
0
0
0
0
0
0
0
0
0
0
0
0
0
0
0
0
0
0
0
0
0
0
0
0
0
0
0
0
0
0
0
0
0
0
0
0
0
0
0
0
0
0
0
0
0
0
0
0
0
0
0
0
0
0
0
0
0
0
0
0
0
0
0
0
0
0
0
0
0
0
0
0
0
0
0
0
0
0
0
0
0
0
0
0
0
0
0
0
0
0
0
0
0
0
0
0
0
0
0
0
0
0
0
0
0
0
0
0
0
0
0
0
0
0
0
0
0
0
0
0
0
0
0
0
0
0
0
0
0
0
0
0
0
0
0
0
0
0
0
0
0
0
0
0
0
0
0
0
0
0
0
0
0
0
0
0
0
0
0
0
0
0
0
0
0
0
0
0
0
0
0
0
0
0
0
0
0
0
0
0
0
0
0
0
0
0
0
0
0
0
0
0
0
0
0
0
0
0
0
0
0
0
0
0
0
0
0
0
0
0
0
0
0
0
0
0
0
0
0
0
0
0
0
0
0
0
0
0
0
0
0
0
0
0
0
0
0
0
0
0
0
0
0
0
0
0
0
0
0
0
0
0
0
0
0
0
0
0
0
0
0
0
0
0
0
0
0
0
0
0
0
0
0
0
0
0
0
0
0
0
0
0
0
0
0
0
0
0
0
0
0
0
0
0
0
0
0
0
0
0
0
0
0
0
0
0
0
0
0
0
0
0
0
0
0
0
0
0
0
0
0
0
0
0
0
0
0
0
0
0
0
0
0
0
0
0
0
0
0
0
0
0
0
0
0
0
0
0
0
0
0
0
0
0
0
0
0
0
0
0
0
0
0
0
0
0
0
0
0
0
0
0
0
0
0
0
0
0
0
0
0
0
0
0
0
0
0
0
0
0
0
0
0
0
0
0
0
0
0
0
0
0
0
0
0
0
0
0
0
0
0
0
0
0
0
0
0
0
0
0
0
0
0
0
0
0
0
0
0
0
0
0
0
0
0
0
0
0
0
0
0
0
0
0
0
0
0
0
0
0
0
0
0
0
0
0
0
0
0
0
0
0
0
0
0
0
0
0
0
0
0
0
0
0
0
0
0
0
0
0
0
0
0
0
0
0
0
0
0
0
0
0
0
0
0
0
0
0
0
0
0
0
0
0
0
0
0
0
0
0
0
0
0
0
0
0
0
0
0
0
0
0
0
0
0
0
0
0
0
0
0
0
0
0
0
0
0
0
0
0
0
0
0
0
0
0
0
0
0
0
0
0
0
0
0
0
0
0
0
0
0
0
0
0
0
0
0
0
0
0
0
0
0
0
0
0
0
0
0
0
0
0
0
0
0
0
0
0
0
0
0
0
0
0
0
0
0
0
0
0
0
0
0
0
0
0
0
0
0
0
0
0
0
0
0
0
0
0
0
0
0
0
0
0
0
0
0
0
0
0
0
0
0
0
0
0
0
0
0
0
0
0
0
0
0
0
0
0
0
0
0
0
0
0
0
0
0
0
0
0
0
0
0
0
0
0
0
0
0
0
0
0
0
0
0
0
0
0
0
0
0
0
0
0
0
0
0
0
0
0
0
0
0
0
0
0
0
0
0
0
0
0
0
0
0
0
0
0
0
0
0
0
0
0
0
0
0
0
0
0
0
0
0
0
0
0
0.0776415
0.052903
0.0436505
0.0357426
0.03048
0.0271088
0.0248019
0.023116
0.0218008
0.0207277
0.0198235
0.0190436
0.0183596
0.0177519
0.0172066
0.0167134
0.0162644
0.0158532
0.0154749
0.0151254
0.0148012
0.0144994
0.0142175
0.0139534
0.0137052
0.0134715
0.0132508
0.0130419
0.0128437
0.0126553
0.0124759
0.0123048
0.0121413
0.0119848
0.0118348
0.0116908
0.0115524
0.011419
0.0112904
0.0111659
0.011045
0.010927
0.0108113
0.0106969
0.0105831
0.0104688
0.0103534
0.0102361
0.0101171
0.00999672
0.00987674
0.00976006
0.00965118
0.00955631
0.00948336
0.00944159
0.00944101
0.00949137
0.0096006
0.0097731
0.0100076
0.0102948
0.0106155
0.0109386
0.0112201
0.0114035
0.0114209
0.0111974
0.0106573
0.00973473
0.0083854
0.00659831
0.00441358
0.00193803
-0.000643074
-0.00306947
-0.00503479
-0.00622911
-0.00638192
-0.00529397
-0.00285922
0.000933147
0.00601456
0.0122478
0.0194536
0.0274294
0.0359635
0.0448456
0.0538713
0.0628383
0.0715552
0.0798407
0.0874954
0.0943096
0.100102
0.104739
0.108125
0.110183
0.110862
0.110158
0.108124
0.104864
0.100528
0.095299
0.0893847
0.0830036
0.0763713
0.0696843
0.0631096
0.0567785
0.0507863
0.0451957
0.0400419
0.0353382
0.0310815
0.0272568
0.0238412
0.0208066
0.0181226
0.0157577
0.0136808
0.011862
0.0102731
0.008888
0.00768278
0.00663575
0.00572741
0.00494033
0.00425906
0.00366992
0.00316086
0.00272132
0.00234203
0.00201494
0.00173299
0.00149007
0.00128086
0.00110075
0.000945742
0.000812379
0.000697673
0.000599038
0.000514245
0.000441369
0.000378748
0.00032495
0.000278742
0.000239061
0.000204992
0.000175746
0.000150645
0.000129106
0.000110626
9.4774e-05
8.11784e-05
6.95201e-05
5.95249e-05
5.09571e-05
4.36141e-05
3.73219e-05
3.19312e-05
2.73137e-05
2.33592e-05
1.99731e-05
1.70744e-05
1.45932e-05
1.247e-05
1.06534e-05
9.09946e-06
7.7705e-06
6.63417e-06
5.66275e-06
4.83245e-06
4.12292e-06
3.51671e-06
2.99889e-06
2.55666e-06
2.17903e-06
1.85657e-06
1.58122e-06
1.3461e-06
1.14539e-06
9.74194e-07
8.28339e-07
7.04238e-07
5.98751e-07
5.09123e-07
4.32992e-07
3.68419e-07
3.13886e-07
2.68192e-07
2.30247e-07
1.98822e-07
1.72381e-07
1.49099e-07
1.27142e-07
1.05129e-07
8.26245e-08
6.04274e-08
4.04655e-08
2.52475e-08
1.69912e-08
1.67047e-08
2.3557e-08
3.48046e-08
4.63636e-08
5.38871e-08
5.40218e-08
4.54354e-08
2.92712e-08
8.8695e-09
-1.11651e-08
-2.62626e-08
-3.31527e-08
-3.0722e-08
-2.02279e-08
-4.84501e-09
1.12849e-08
2.41907e-08
3.10653e-08
3.08562e-08
2.43344e-08
1.36859e-08
1.79337e-09
-8.56075e-09
-1.53504e-08
-1.76745e-08
-1.57891e-08
-1.08518e-08
-4.49337e-09
1.64573e-09
6.2929e-09
8.75936e-09
8.9754e-09
7.37429e-09
4.68557e-09
1.70677e-09
-8.87758e-10
-2.66493e-09
-3.46838e-09
-3.38338e-09
-2.65714e-09
-1.6042e-09
-5.2196e-10
3.67174e-10
9.41657e-10
1.17775e-09
1.12648e-09
8.81425e-10
5.46973e-10
2.13843e-10
-5.51431e-11
-2.29113e-10
-3.05332e-10
-3.00827e-10
-2.42663e-10
-1.59334e-10
-7.47024e-11
-4.88342e-12
4.22724e-11
6.58742e-11
6.97588e-11
6.01042e-11
4.34247e-11
2.52124e-11
9.266e-12
-2.40983e-12
-9.3232e-12
-1.20275e-11
-1.16288e-11
-9.37392e-12
-6.36729e-12
-3.42361e-12
-1.03096e-12
6.10635e-13
1.51244e-12
1.81144e-12
1.69575e-12
1.35042e-12
9.25796e-13
5.24935e-13
2.04754e-13
-1.49858e-14
-1.39757e-13
-1.88806e-13
-1.86051e-13
-1.53993e-13
-1.10456e-13
-6.75411e-14
-3.2027e-14
-6.5225e-15
9.16049e-15
1.67516e-14
1.85533e-14
1.68026e-14
1.33266e-14
9.42219e-15
5.87826e-15
3.07447e-15
1.10344e-15
-1.14486e-16
-7.40156e-16
-9.52791e-16
-9.13014e-16
-7.45955e-16
-5.37957e-16
-3.41077e-16
-1.81001e-16
-6.5462e-17
8.45592e-18
4.87798e-17
6.49447e-17
6.56398e-17
5.78095e-17
4.64117e-17
3.46061e-17
2.41328e-17
1.57291e-17
9.49886e-18
5.2003e-18
2.44607e-18
8.28383e-19
-1.3822e-20
-3.67302e-19
-4.41204e-19
-3.76547e-19
-2.60758e-19
-1.42591e-19
-4.50581e-20
2.45246e-20
6.73719e-20
8.85292e-20
9.40566e-20
8.95378e-20
7.94456e-20
6.70112e-20
5.4352e-20
4.27033e-20
3.2664e-20
2.44128e-20
1.78769e-20
1.28532e-20
9.08873e-21
6.32941e-21
4.3459e-21
2.94487e-21
1.97093e-21
1.30376e-21
8.52919e-22
5.52115e-22
3.53807e-22
2.24543e-22
1.41186e-22
8.7981e-23
5.4353e-23
3.32978e-23
2.02337e-23
1.21985e-23
7.29792e-24
4.33353e-24
2.55455e-24
1.49518e-24
8.69051e-25
5.01693e-25
2.87695e-25
1.63902e-25
9.27794e-26
5.21895e-26
2.91762e-26
1.62119e-26
8.9545e-27
4.91694e-27
2.68431e-27
1.45712e-27
7.86529e-28
4.2221e-28
2.25408e-28
1.19693e-28
6.32203e-29
3.32173e-29
1.73627e-29
9.02911e-30
4.67168e-30
2.40506e-30
1.23205e-30
6.28066e-31
3.18624e-31
1.60868e-31
8.08351e-32
4.04288e-32
2.01263e-32
9.97322e-33
4.91956e-33
2.41577e-33
1.18097e-33
5.74773e-34
2.78512e-34
1.34368e-34
6.45464e-35
3.08735e-35
1.47046e-35
6.97411e-36
3.29388e-36
1.54926e-36
7.25688e-37
3.38533e-37
1.57286e-37
7.27831e-38
3.35455e-38
1.53998e-38
7.04177e-39
3.20737e-39
1.45522e-39
6.57707e-40
2.96121e-40
1.32817e-40
5.93461e-41
2.64179e-41
1.17161e-41
5.17669e-42
2.27887e-42
9.99529e-43
4.36805e-43
1.90198e-43
8.25203e-44
3.56747e-44
1.53679e-44
6.59675e-45
2.82174e-45
1.20278e-45
5.10906e-46
2.16269e-46
9.1233e-47
3.83551e-47
1.607e-47
6.71021e-48
2.7925e-48
1.15823e-48
4.78793e-49
1.97269e-49
8.10097e-50
3.3158e-50
1.35276e-50
5.50097e-51
2.22973e-51
9.00878e-52
3.62817e-52
1.45654e-52
5.82881e-53
2.32522e-53
9.24656e-54
3.66553e-54
1.44857e-54
5.70682e-55
2.24133e-55
8.77572e-56
3.42554e-56
1.33306e-56
5.17194e-57
2.00052e-57
7.71482e-58
2.96624e-58
1.13708e-58
4.34594e-59
1.65612e-59
6.29243e-60
2.3838e-60
9.00433e-61
3.39132e-61
1.27358e-61
4.769e-62
1.78065e-62
6.62958e-63
2.46123e-63
9.11137e-64
3.36344e-64
1.23811e-64
4.54477e-65
1.6636e-65
6.07256e-66
2.21049e-66
8.02418e-67
2.90479e-67
1.04866e-67
3.7754e-68
1.35552e-68
4.85364e-69
1.73321e-69
6.17251e-70
2.19231e-70
7.76567e-71
2.74343e-71
9.6661e-72
3.39669e-72
1.19045e-72
4.16122e-73
1.45074e-73
5.04452e-74
1.74951e-74
6.05178e-75
2.08797e-75
7.18523e-76
2.46626e-76
8.44349e-77
2.88332e-77
9.821e-78
3.33667e-78
1.13076e-78
3.82234e-79
1.28882e-79
4.33478e-80
1.4543e-80
4.86692e-81
1.62471e-81
5.41027e-82
1.79716e-82
5.95505e-83
1.96841e-83
6.49054e-84
2.13494e-84
7.00536e-85
2.29309e-85
7.48789e-86
2.43921e-86
7.92669e-87
2.56976e-87
8.31099e-88
2.68149e-88
8.6311e-89
2.77156e-89
8.87881e-90
2.83766e-90
9.04778e-91
2.8781e-91
9.1338e-92
2.8919e-92
9.13493e-93
2.87884e-93
9.0516e-94
2.83942e-94
8.88657e-95
2.77486e-95
8.64476e-96
2.68703e-96
8.33303e-97
2.57837e-97
7.95985e-98
2.45178e-98
7.53495e-99
2.31048e-99
7.06885e-100
2.15787e-100
6.57251e-101
1.99743e-101
6.05685e-102
1.83257e-102
5.53242e-103
1.66653e-103
5.00905e-104
1.50227e-104
4.4956e-105
1.3424e-105
3.99973e-106
1.18915e-106
3.52778e-107
1.04431e-107
3.08475e-108
9.09238e-109
2.67426e-109
7.84875e-110
2.29864e-110
6.71762e-111
1.95902e-111
5.70086e-112
1.65548e-112
4.79725e-113
1.38722e-113
4.00302e-114
1.15271e-114
3.31242e-115
9.4987e-116
2.71819e-116
7.76236e-117
2.21212e-117
6.29109e-118
1.78545e-118
5.05681e-119
1.42927e-119
4.03146e-120
1.13481e-120
3.18786e-121
8.93698e-122
2.50035e-122
6.98124e-123
1.9453e-123
5.40958e-124
1.5013e-124
4.15815e-125
1.14937e-125
3.1707e-126
8.72937e-127
2.39853e-127
6.57728e-128
1.80005e-128
4.91662e-129
1.34026e-129
3.64634e-130
9.90084e-131
2.68309e-131
7.25683e-132
1.9589e-132
5.27751e-133
1.41906e-133
3.8083e-134
1.02005e-134
2.7269e-135
7.27579e-136
1.93756e-136
5.14985e-137
1.36616e-137
3.61725e-138
9.55927e-139
2.52141e-139
6.63798e-140
1.74423e-140
4.57455e-141
1.19749e-141
3.12879e-142
8.15946e-143
2.12388e-143
5.51804e-144
1.43095e-144
3.70386e-145
9.56914e-146
2.46765e-146
6.35164e-147
1.63186e-147
4.18482e-148
1.07119e-148
2.73689e-149
6.97987e-150
1.7768e-150
4.51476e-151
1.14508e-151
2.89896e-152
7.32584e-153
1.84792e-153
4.65283e-154
1.16941e-154
2.93377e-155
7.34689e-156
1.83652e-156
4.58256e-157
1.1414e-157
2.83786e-158
7.04312e-159
1.74487e-159
4.31505e-160
1.06521e-160
2.6249e-161
6.45684e-162
1.58547e-162
3.88622e-163
9.50889e-164
2.32256e-164
5.66293e-165
1.37833e-165
3.3489e-166
8.12254e-167
1.96663e-167
4.75332e-168
1.14687e-168
2.76235e-169
6.64185e-170
1.59422e-170
3.81992e-171
9.13717e-172
2.18183e-172
5.20097e-173
1.23766e-173
2.94018e-174
6.97273e-175
1.65078e-175
3.90155e-176
9.20544e-177
2.16827e-177
5.09855e-178
1.19686e-178
2.80482e-179
6.56196e-180
1.53261e-180
3.57352e-181
8.31826e-182
1.93304e-182
4.48457e-183
1.03866e-183
2.40162e-184
5.54384e-185
1.2776e-185
2.93938e-186
6.75145e-187
1.54817e-187
3.54425e-188
8.1005e-189
1.84835e-189
4.21058e-190
9.57604e-191
2.17429e-191
4.92878e-192
1.11545e-192
2.5203e-193
5.68521e-194
1.28037e-194
2.87883e-195
6.46241e-196
1.44833e-196
3.24072e-197
7.23956e-198
1.61467e-198
3.59547e-199
7.99336e-200
1.77422e-200
3.93177e-201
8.69911e-202
1.92162e-202
4.23807e-203
9.33205e-204
2.05161e-204
4.50323e-205
9.86881e-206
2.15933e-206
4.71721e-207
1.02888e-207
2.2406e-208
4.87166e-209
1.05757e-209
2.29224e-210
4.96054e-211
1.07182e-211
2.31224e-212
4.98044e-213
1.07109e-213
2.29991e-214
4.93084e-215
1.0555e-215
2.25591e-216
4.81408e-217
1.02574e-217
2.18217e-218
4.63525e-219
9.83083e-220
2.08181e-220
4.40175e-221
9.29279e-222
1.95886e-222
4.12285e-223
8.66422e-224
1.81803e-224
3.80902e-225
7.9683e-226
1.66441e-226
3.47135e-227
7.22902e-228
1.50316e-228
3.12088e-229
6.46988e-230
1.33925e-230
2.76807e-231
5.71268e-232
1.17721e-232
2.42225e-233
4.97664e-234
1.02095e-234
2.09137e-235
4.27768e-236
8.73661e-237
1.78169e-237
3.62811e-238
7.37712e-239
1.49779e-239
3.03653e-240
6.147e-241
1.24254e-241
2.50796e-242
5.05468e-243
1.01726e-243
2.04425e-244
4.10207e-245
8.21937e-246
1.64453e-246
3.28559e-247
6.55471e-248
1.30576e-248
2.59745e-249
5.15942e-250
1.02336e-250
2.02687e-251
4.00868e-252
7.91681e-253
1.56126e-253
3.07452e-254
6.04584e-255
1.18717e-255
2.32783e-256
4.55794e-257
8.91181e-258
1.73998e-258
3.3924e-259
6.60468e-260
1.28405e-260
2.49284e-261
4.83273e-262
9.35573e-263
1.80863e-263
3.49149e-264
6.73068e-265
1.29568e-265
2.49072e-266
4.78129e-267
9.1655e-268
1.75453e-268
3.35395e-269
6.40246e-270
1.22049e-270
2.32335e-271
4.41663e-272
8.38427e-273
1.58942e-273
3.0089e-274
5.68824e-275
1.07386e-275
2.0245e-276
3.81145e-277
7.1658e-278
1.34537e-278
2.52245e-279
4.7229e-280
8.83078e-281
1.6489e-281
3.07467e-282
5.72543e-283
1.0647e-283
1.97721e-284
3.66682e-285
6.79104e-286
1.25601e-286
2.31986e-287
4.27901e-288
7.88202e-289
1.44992e-289
2.66359e-290
4.88658e-291
8.95278e-292
1.63805e-292
2.99305e-293
5.46158e-294
9.95271e-295
1.81127e-295
3.29189e-296
5.97487e-297
1.08301e-297
1.96046e-298
3.5441e-299
6.3985e-300
1.15365e-300
2.07727e-301
3.73542e-302
6.70827e-303
1.20312e-303
2.15493e-304
3.85467e-305
6.88603e-306
1.22851e-306
2.18887e-307
3.89486e-308
6.92142e-309
1.22837e-309
2.17719e-310
3.85386e-311
6.81287e-312
1.20281e-312
2.12081e-313
3.73457e-314
6.56775e-315
1.15353e-315
2.02339e-316
3.5446e-317
6.20146e-318
1.08358e-318
1.89089e-319
3.29591e-320
5.7361e-321
9.98013e-322
1.72923e-322
2.47033e-323
0
0
0
0
0
0
0
0
0
0
0
0
0
0
0
0
0
0
0
0
0
0
0
0
0
0
0
0
0
0
0
0
0
0
0
0
0
0
0
0
0
0
0
0
0
0
0
0
0
0
0
0
0
0
0
0
0
0
0
0
0
0
0
0
0
0
0
0
0
0
0
0
0
0
0
0
0
0
0
0
0
0
0
0
0
0
0
0
0
0
0
0
0
0
0
0
0
0
0
0
0
0
0
0
0
0
0
0
0
0
0
0
0
0
0
0
0
0
0
0
0
0
0
0
0
0
0
0
0
0
0
0
0
0
0
0
0
0
0
0
0
0
0
0
0
0
0
0
0
0
0
0
0
0
0
0
0
0
0
0
0
0
0
0
0
0
0
0
0
0
0
0
0
0
0
0
0
0
0
0
0
0
0
0
0
0
0
0
0
0
0
0
0
0
0
0
0
0
0
0
0
0
0
0
0
0
0
0
0
0
0
0
0
0
0
0
0
0
0
0
0
0
0
0
0
0
0
0
0
0
0
0
0
0
0
0
0
0
0
0
0
0
0
0
0
0
0
0
0
0
0
0
0
0
0
0
0
0
0
0
0
0
0
0
0
0
0
0
0
0
0
0
0
0
0
0
0
0
0
0
0
0
0
0
0
0
0
0
0
0
0
0
0
0
0
0
0
0
0
0
0
0
0
0
0
0
0
0
0
0
0
0
0
0
0
0
0
0
0
0
0
0
0
0
0
0
0
0
0
0
0
0
0
0
0
0
0
0
0
0
0
0
0
0
0
0
0
0
0
0
0
0
0
0
0
0
0
0
0
0
0
0
0
0
0
0
0
0
0
0
0
0
0
0
0
0
0
0
0
0
0
0
0
0
0
0
0
0
0
0
0
0
0
0
0
0
0
0
0
0
0
0
0
0
0
0
0
0
0
0
0
0
0
0
0
0
0
0
0
0
0
0
0
0
0
0
0
0
0
0
0
0
0
0
0
0
0
0
0
0
0
0
0
0
0
0
0
0
0
0
0
0
0
0
0
0
0
0
0
0
0
0
0
0
0
0
0
0
0
0
0
0
0
0
0
0
0
0
0
0
0
0
0
0
0
0
0
0
0
0
0
0
0
0
0
0
0
0
0
0
0
0
0
0
0
0
0
0
0
0
0
0
0
0
0
0
0
0
0
0
0
0
0
0
0
0
0
0
0
0
0
0
0
0
0
0
0
0
0
0
0
0
0
0
0
0
0
0
0
0
0
0
0
0
0
0
0
0
0
0
0
0
0
0
0
0
0
0
0
0
0
0
0
0
0
0
0
0
0
0
0
0
0
0
0
0
0
0
0
0
0
0
0
0
0
0
0
0
0
0
0
0
0
0
0
0
0
0
0
0
0
0
0
0
0
0
0
0
0
0
0
0
0
0
0
0
0
0
0
0
0
0
0
0
0
0
0
0
0
0
0
0
0
0
0
0
0
0
0
0
0
0
0
0
0
0
0
0
0
0
0
0
0
0
0
0
0
0
0
0
0
0
0
0
0
0
0
0
0
0
0
0
0
0
0
0
0
0
0
0
0
0
0
0
0
0
0
0
0
0
0
0
0
0
0
0
0
0.062787
0.0345542
0.0299574
0.025277
0.0221391
0.0200069
0.0184495
0.0172639
0.0163155
0.0155312
0.0148652
0.0142884
0.013781
0.0133294
0.0129237
0.0125563
0.0122216
0.0119149
0.0116326
0.0113716
0.0111293
0.0109037
0.0106929
0.0104953
0.0103096
0.0101347
0.00996939
0.00981292
0.00966445
0.00952331
0.00938888
0.00926062
0.00913804
0.00902073
0.00890829
0.00880036
0.00869661
0.0085967
0.0085003
0.00840703
0.00831649
0.0082282
0.00814161
0.00805609
0.00797097
0.00788555
0.00779917
0.00771137
0.00762198
0.00753136
0.0074406
0.00735176
0.00726808
0.00719412
0.00713573
0.0070999
0.00709429
0.0071265
0.00720298
0.00732772
0.0075006
0.00771571
0.00795978
0.00821072
0.00843682
0.00859674
0.0086405
0.00851207
0.00815359
0.00751266
0.00655078
0.00525141
0.00363309
0.00176317
-0.000231676
-0.00216185
-0.00379169
-0.00487306
-0.00518123
-0.00454452
-0.00286514
-0.00012847
0.00360919
0.00823234
0.0135863
0.0194931
0.0257659
0.0322213
0.0386807
0.044976
0.0509588
0.0565029
0.0614874
0.0658014
0.0693635
0.0721296
0.0740798
0.0752042
0.0755045
0.075001
0.0737359
0.07177
0.0691775
0.0660434
0.0624619
0.0585361
0.0543756
0.0500909
0.0457864
0.0415545
0.0374708
0.0335931
0.0299615
0.0266003
0.0235207
0.0207236
0.0182019
0.0159431
0.0139309
0.0121469
0.0105716
0.0091857
0.00797007
0.00690664
0.0059785
0.00517006
0.00446712
0.00385682
0.00332767
0.0028694
0.00247291
0.00213019
0.00183417
0.00157867
0.00135827
0.00116826
0.00100453
0.000863498
0.000742073
0.000637565
0.000547647
0.000470305
0.000403799
0.000346626
0.000297488
0.000255266
0.000218994
0.00018784
0.000161089
0.000138121
0.000118406
0.000101487
8.69689e-05
7.45141e-05
6.3831e-05
5.46692e-05
4.68137e-05
4.00793e-05
3.4307e-05
2.93604e-05
2.51221e-05
2.14913e-05
1.83815e-05
1.57186e-05
1.34386e-05
1.14869e-05
9.81664e-06
8.38742e-06
7.16473e-06
6.11896e-06
5.2247e-06
4.46015e-06
3.80663e-06
3.2481e-06
2.77087e-06
2.36318e-06
2.01499e-06
1.71765e-06
1.46376e-06
1.24695e-06
1.06178e-06
9.03629e-07
7.68632e-07
6.53526e-07
5.55527e-07
4.72201e-07
4.01392e-07
3.41206e-07
2.90063e-07
2.46734e-07
2.10322e-07
1.80126e-07
1.55421e-07
1.35223e-07
1.18184e-07
1.02697e-07
8.72289e-08
7.08026e-08
5.34161e-08
3.62094e-08
2.12327e-08
1.08258e-08
6.78031e-09
9.5662e-09
1.79194e-08
2.89787e-08
3.89773e-08
4.42925e-08
4.25226e-08
3.32364e-08
1.81441e-08
6.27656e-10
-1.52224e-08
-2.57622e-08
-2.87884e-08
-2.40822e-08
-1.33699e-08
2.52603e-10
1.32253e-08
2.2478e-08
2.61623e-08
2.3985e-08
1.70981e-08
7.63032e-09
-1.96685e-09
-9.56184e-09
-1.38078e-08
-1.43391e-08
-1.16931e-08
-7.02629e-09
-1.73181e-09
2.92672e-09
6.07907e-09
7.3656e-09
6.91055e-09
5.18871e-09
2.84097e-09
4.94261e-10
-1.37308e-09
-2.49982e-09
-2.84481e-09
-2.54009e-09
-1.81784e-09
-9.34447e-10
-1.09798e-10
5.09e-10
8.57995e-10
9.46015e-10
8.31746e-10
5.96977e-10
3.22941e-10
7.39368e-11
-1.10481e-10
-2.15749e-10
-2.47308e-10
-2.23102e-10
-1.65959e-10
-9.74835e-11
-3.42178e-11
1.38801e-11
4.31294e-11
5.4675e-11
5.25843e-11
4.20386e-11
2.79466e-11
1.41095e-11
2.90323e-12
-4.64775e-12
-8.56347e-12
-9.51572e-12
-8.45847e-12
-6.34464e-12
-3.95125e-12
-1.80487e-12
-1.82959e-13
8.38984e-13
1.32132e-12
1.39537e-12
1.21142e-12
9.04203e-13
5.75215e-13
2.88315e-13
7.3921e-14
-6.2496e-14
-1.3099e-13
-1.4889e-13
-1.34734e-13
-1.04566e-13
-7.02425e-14
-3.92092e-14
-1.51365e-14
1.06197e-15
1.01784e-14
1.38278e-14
1.38132e-14
1.17402e-14
8.83722e-15
5.92032e-15
3.44353e-15
1.58741e-15
3.53288e-16
-3.55573e-16
-6.73678e-16
-7.34437e-16
-6.49417e-16
-5.00763e-16
-3.41928e-16
-2.02693e-16
-9.56375e-17
-2.23166e-17
2.17329e-17
4.34132e-17
4.98121e-17
4.70034e-17
3.9587e-17
3.06841e-17
2.21678e-17
1.49766e-17
9.42149e-18
5.44047e-18
2.78645e-18
1.15167e-18
2.40659e-19
-1.94251e-19
-3.41751e-19
-3.34448e-19
-2.58379e-19
-1.64468e-19
-7.92481e-20
-1.36568e-20
3.04185e-20
5.56501e-20
6.64439e-20
6.73335e-20
6.21996e-20
5.39982e-20
4.47744e-20
3.58069e-20
2.77949e-20
2.1036e-20
1.55734e-20
1.13058e-20
8.06421e-21
5.66028e-21
3.91456e-21
2.67027e-21
1.79821e-21
1.19638e-21
7.8692e-22
5.12e-22
3.2969e-22
2.10201e-22
1.32748e-22
8.30698e-23
5.15251e-23
3.16871e-23
1.93265e-23
1.16932e-23
7.01982e-24
4.18233e-24
2.47341e-24
1.45223e-24
8.46663e-25
4.90218e-25
2.81926e-25
1.61067e-25
9.14245e-26
5.15649e-26
2.89023e-26
1.61007e-26
8.91534e-27
4.90741e-27
2.68553e-27
1.4612e-27
7.90548e-28
4.25326e-28
2.27575e-28
1.21106e-28
6.41038e-29
3.37522e-29
1.76788e-29
9.21217e-30
4.77593e-30
2.46357e-30
1.26447e-30
6.45825e-31
3.28249e-31
1.66035e-31
8.35842e-32