# vtk DataFile Version 2.0
FlowField
ASCII
DATASET STRUCTURED_GRID
DIMENSIONS 1602 1 52
POINTS 83304 float
0 0 0
0.1 0 0
0.2 0 0
0.3 0 0
0.4 0 0
0.5 0 0
0.6 0 0
0.7 0 0
0.8 0 0
0.9 0 0
1 0 0
1.1 0 0
1.2 0 0
1.3 0 0
1.4 0 0
1.5 0 0
1.6 0 0
1.7 0 0
1.8 0 0
1.9 0 0
2 0 0
2.1 0 0
2.2 0 0
2.3 0 0
2.4 0 0
2.5 0 0
2.6 0 0
2.7 0 0
2.8 0 0
2.9 0 0
3 0 0
3.1 0 0
3.2 0 0
3.3 0 0
3.4 0 0
3.5 0 0
3.6 0 0
3.7 0 0
3.8 0 0
3.9 0 0
4 0 0
4.1 0 0
4.2 0 0
4.3 0 0
4.4 0 0
4.5 0 0
4.6 0 0
4.7 0 0
4.8 0 0
4.9 0 0
5 0 0
5.1 0 0
5.2 0 0
5.3 0 0
5.4 0 0
5.5 0 0
5.6 0 0
5.7 0 0
5.8 0 0
5.9 0 0
6 0 0
6.1 0 0
6.2 0 0
6.3 0 0
6.4 0 0
6.5 0 0
6.6 0 0
6.7 0 0
6.8 0 0
6.9 0 0
7 0 0
7.1 0 0
7.2 0 0
7.3 0 0
7.4 0 0
7.5 0 0
7.6 0 0
7.7 0 0
7.8 0 0
7.9 0 0
8 0 0
8.1 0 0
8.2 0 0
8.3 0 0
8.4 0 0
8.5 0 0
8.6 0 0
8.7 0 0
8.8 0 0
8.9 0 0
9 0 0
9.1 0 0
9.2 0 0
9.3 0 0
9.4 0 0
9.5 0 0
9.6 0 0
9.7 0 0
9.8 0 0
9.9 0 0
10 0 0
10.1 0 0
10.2 0 0
10.3 0 0
10.4 0 0
10.5 0 0
10.6 0 0
10.7 0 0
10.8 0 0
10.9 0 0
11 0 0
11.1 0 0
11.2 0 0
11.3 0 0
11.4 0 0
11.5 0 0
11.6 0 0
11.7 0 0
11.8 0 0
11.9 0 0
12 0 0
12.1 0 0
12.2 0 0
12.3 0 0
12.4 0 0
12.5 0 0
12.6 0 0
12.7 0 0
12.8 0 0
12.9 0 0
13 0 0
13.1 0 0
13.2 0 0
13.3 0 0
13.4 0 0
13.5 0 0
13.6 0 0
13.7 0 0
13.8 0 0
13.9 0 0
14 0 0
14.1 0 0
14.2 0 0
14.3 0 0
14.4 0 0
14.5 0 0
14.6 0 0
14.7 0 0
14.8 0 0
14.9 0 0
15 0 0
15.1 0 0
15.2 0 0
15.3 0 0
15.4 0 0
15.5 0 0
15.6 0 0
15.7 0 0
15.8 0 0
15.9 0 0
16 0 0
16.1 0 0
16.2 0 0
16.3 0 0
16.4 0 0
16.5 0 0
16.6 0 0
16.7 0 0
16.8 0 0
16.9 0 0
17 0 0
17.1 0 0
17.2 0 0
17.3 0 0
17.4 0 0
17.5 0 0
17.6 0 0
17.7 0 0
17.8 0 0
17.9 0 0
18 0 0
18.1 0 0
18.2 0 0
18.3 0 0
18.4 0 0
18.5 0 0
18.6 0 0
18.7 0 0
18.8 0 0
18.9 0 0
19 0 0
19.1 0 0
19.2 0 0
19.3 0 0
19.4 0 0
19.5 0 0
19.6 0 0
19.7 0 0
19.8 0 0
19.9 0 0
20 0 0
20.1 0 0
20.2 0 0
20.3 0 0
20.4 0 0
20.5 0 0
20.6 0 0
20.7 0 0
20.8 0 0
20.9 0 0
21 0 0
21.1 0 0
21.2 0 0
21.3 0 0
21.4 0 0
21.5 0 0
21.6 0 0
21.7 0 0
21.8 0 0
21.9 0 0
22 0 0
22.1 0 0
22.2 0 0
22.3 0 0
22.4 0 0
22.5 0 0
22.6 0 0
22.7 0 0
22.8 0 0
22.9 0 0
23 0 0
23.1 0 0
23.2 0 0
23.3 0 0
23.4 0 0
23.5 0 0
23.6 0 0
23.7 0 0
23.8 0 0
23.9 0 0
24 0 0
24.1 0 0
24.2 0 0
24.3 0 0
24.4 0 0
24.5 0 0
24.6 0 0
24.7 0 0
24.8 0 0
24.9 0 0
25 0 0
25.1 0 0
25.2 0 0
25.3 0 0
25.4 0 0
25.5 0 0
25.6 0 0
25.7 0 0
25.8 0 0
25.9 0 0
26 0 0
26.1 0 0
26.2 0 0
26.3 0 0
26.4 0 0
26.5 0 0
26.6 0 0
26.7 0 0
26.8 0 0
26.9 0 0
27 0 0
27.1 0 0
27.2 0 0
27.3 0 0
27.4 0 0
27.5 0 0
27.6 0 0
27.7 0 0
27.8 0 0
27.9 0 0
28 0 0
28.1 0 0
28.2 0 0
28.3 0 0
28.4 0 0
28.5 0 0
28.6 0 0
28.7 0 0
28.8 0 0
28.9 0 0
29 0 0
29.1 0 0
29.2 0 0
29.3 0 0
29.4 0 0
29.5 0 0
29.6 0 0
29.7 0 0
29.8 0 0
29.9 0 0
30 0 0
30.1 0 0
30.2 0 0
30.3 0 0
30.4 0 0
30.5 0 0
30.6 0 0
30.7 0 0
30.8 0 0
30.9 0 0
31 0 0
31.1 0 0
31.2 0 0
31.3 0 0
31.4 0 0
31.5 0 0
31.6 0 0
31.7 0 0
31.8 0 0
31.9 0 0
32 0 0
32.1 0 0
32.2 0 0
32.3 0 0
32.4 0 0
32.5 0 0
32.6 0 0
32.7 0 0
32.8 0 0
32.9 0 0
33 0 0
33.1 0 0
33.2 0 0
33.3 0 0
33.4 0 0
33.5 0 0
33.6 0 0
33.7 0 0
33.8 0 0
33.9 0 0
34 0 0
34.1 0 0
34.2 0 0
34.3 0 0
34.4 0 0
34.5 0 0
34.6 0 0
34.7 0 0
34.8 0 0
34.9 0 0
35 0 0
35.1 0 0
35.2 0 0
35.3 0 0
35.4 0 0
35.5 0 0
35.6 0 0
35.7 0 0
35.8 0 0
35.9 0 0
36 0 0
36.1 0 0
36.2 0 0
36.3 0 0
36.4 0 0
36.5 0 0
36.6 0 0
36.7 0 0
36.8 0 0
36.9 0 0
37 0 0
37.1 0 0
37.2 0 0
37.3 0 0
37.4 0 0
37.5 0 0
37.6 0 0
37.7 0 0
37.8 0 0
37.9 0 0
38 0 0
38.1 0 0
38.2 0 0
38.3 0 0
38.4 0 0
38.5 0 0
38.6 0 0
38.7 0 0
38.8 0 0
38.9 0 0
39 0 0
39.1 0 0
39.2 0 0
39.3 0 0
39.4 0 0
39.5 0 0
39.6 0 0
39.7 0 0
39.8 0 0
39.9 0 0
40 0 0
40.1 0 0
40.2 0 0
40.3 0 0
40.4 0 0
40.5 0 0
40.6 0 0
40.7 0 0
40.8 0 0
40.9 0 0
41 0 0
41.1 0 0
41.2 0 0
41.3 0 0
41.4 0 0
41.5 0 0
41.6 0 0
41.7 0 0
41.8 0 0
41.9 0 0
42 0 0
42.1 0 0
42.2 0 0
42.3 0 0
42.4 0 0
42.5 0 0
42.6 0 0
42.7 0 0
42.8 0 0
42.9 0 0
43 0 0
43.1 0 0
43.2 0 0
43.3 0 0
43.4 0 0
43.5 0 0
43.6 0 0
43.7 0 0
43.8 0 0
43.9 0 0
44 0 0
44.1 0 0
44.2 0 0
44.3 0 0
44.4 0 0
44.5 0 0
44.6 0 0
44.7 0 0
44.8 0 0
44.9 0 0
45 0 0
45.1 0 0
45.2 0 0
45.3 0 0
45.4 0 0
45.5 0 0
45.6 0 0
45.7 0 0
45.8 0 0
45.9 0 0
46 0 0
46.1 0 0
46.2 0 0
46.3 0 0
46.4 0 0
46.5 0 0
46.6 0 0
46.7 0 0
46.8 0 0
46.9 0 0
47 0 0
47.1 0 0
47.2 0 0
47.3 0 0
47.4 0 0
47.5 0 0
47.6 0 0
47.7 0 0
47.8 0 0
47.9 0 0
48 0 0
48.1 0 0
48.2 0 0
48.3 0 0
48.4 0 0
48.5 0 0
48.6 0 0
48.7 0 0
48.8 0 0
48.9 0 0
49 0 0
49.1 0 0
49.2 0 0
49.3 0 0
49.4 0 0
49.5 0 0
49.6 0 0
49.7 0 0
49.8 0 0
49.9 0 0
50 0 0
50.1 0 0
50.2 0 0
50.3 0 0
50.4 0 0
50.5 0 0
50.6 0 0
50.7 0 0
50.8 0 0
50.9 0 0
51 0 0
51.1 0 0
51.2 0 0
51.3 0 0
51.4 0 0
51.5 0 0
51.6 0 0
51.7 0 0
51.8 0 0
51.9 0 0
52 0 0
52.1 0 0
52.2 0 0
52.3 0 0
52.4 0 0
52.5 0 0
52.6 0 0
52.7 0 0
52.8 0 0
52.9 0 0
53 0 0
53.1 0 0
53.2 0 0
53.3 0 0
53.4 0 0
53.5 0 0
53.6 0 0
53.7 0 0
53.8 0 0
53.9 0 0
54 0 0
54.1 0 0
54.2 0 0
54.3 0 0
54.4 0 0
54.5 0 0
54.6 0 0
54.7 0 0
54.8 0 0
54.9 0 0
55 0 0
55.1 0 0
55.2 0 0
55.3 0 0
55.4 0 0
55.5 0 0
55.6 0 0
55.7 0 0
55.8 0 0
55.9 0 0
56 0 0
56.1 0 0
56.2 0 0
56.3 0 0
56.4 0 0
56.5 0 0
56.6 0 0
56.7 0 0
56.8 0 0
56.9 0 0
57 0 0
57.1 0 0
57.2 0 0
57.3 0 0
57.4 0 0
57.5 0 0
57.6 0 0
57.7 0 0
57.8 0 0
57.9 0 0
58 0 0
58.1 0 0
58.2 0 0
58.3 0 0
58.4 0 0
58.5 0 0
58.6 0 0
58.7 0 0
58.8 0 0
58.9 0 0
59 0 0
59.1 0 0
59.2 0 0
59.3 0 0
59.4 0 0
59.5 0 0
59.6 0 0
59.7 0 0
59.8 0 0
59.9 0 0
60 0 0
60.1 0 0
60.2 0 0
60.3 0 0
60.4 0 0
60.5 0 0
60.6 0 0
60.7 0 0
60.8 0 0
60.9 0 0
61 0 0
61.1 0 0
61.2 0 0
61.3 0 0
61.4 0 0
61.5 0 0
61.6 0 0
61.7 0 0
61.8 0 0
61.9 0 0
62 0 0
62.1 0 0
62.2 0 0
62.3 0 0
62.4 0 0
62.5 0 0
62.6 0 0
62.7 0 0
62.8 0 0
62.9 0 0
63 0 0
63.1 0 0
63.2 0 0
63.3 0 0
63.4 0 0
63.5 0 0
63.6 0 0
63.7 0 0
63.8 0 0
63.9 0 0
64 0 0
64.1 0 0
64.2 0 0
64.3 0 0
64.4 0 0
64.5 0 0
64.6 0 0
64.7 0 0
64.8 0 0
64.9 0 0
65 0 0
65.1 0 0
65.2 0 0
65.3 0 0
65.4 0 0
65.5 0 0
65.6 0 0
65.7 0 0
65.8 0 0
65.9 0 0
66 0 0
66.1 0 0
66.2 0 0
66.3 0 0
66.4 0 0
66.5 0 0
66.6 0 0
66.7 0 0
66.8 0 0
66.9 0 0
67 0 0
67.1 0 0
67.2 0 0
67.3 0 0
67.4 0 0
67.5 0 0
67.6 0 0
67.7 0 0
67.8 0 0
67.9 0 0
68 0 0
68.1 0 0
68.2 0 0
68.3 0 0
68.4 0 0
68.5 0 0
68.6 0 0
68.7 0 0
68.8 0 0
68.9 0 0
69 0 0
69.1 0 0
69.2 0 0
69.3 0 0
69.4 0 0
69.5 0 0
69.6 0 0
69.7 0 0
69.8 0 0
69.9 0 0
70 0 0
70.1 0 0
70.2 0 0
70.3 0 0
70.4 0 0
70.5 0 0
70.6 0 0
70.7 0 0
70.8 0 0
70.9 0 0
71 0 0
71.1 0 0
71.2 0 0
71.3 0 0
71.4 0 0
71.5 0 0
71.6 0 0
71.7 0 0
71.8 0 0
71.9 0 0
72 0 0
72.1 0 0
72.2 0 0
72.3 0 0
72.4 0 0
72.5 0 0
72.6 0 0
72.7 0 0
72.8 0 0
72.9 0 0
73 0 0
73.1 0 0
73.2 0 0
73.3 0 0
73.4 0 0
73.5 0 0
73.6 0 0
73.7 0 0
73.8 0 0
73.9 0 0
74 0 0
74.1 0 0
74.2 0 0
74.3 0 0
74.4 0 0
74.5 0 0
74.6 0 0
74.7 0 0
74.8 0 0
74.9 0 0
75 0 0
75.1 0 0
75.2 0 0
75.3 0 0
75.4 0 0
75.5 0 0
75.6 0 0
75.7 0 0
75.8 0 0
75.9 0 0
76 0 0
76.1 0 0
76.2 0 0
76.3 0 0
76.4 0 0
76.5 0 0
76.6 0 0
76.7 0 0
76.8 0 0
76.9 0 0
77 0 0
77.1 0 0
77.2 0 0
77.3 0 0
77.4 0 0
77.5 0 0
77.6 0 0
77.7 0 0
77.8 0 0
77.9 0 0
78 0 0
78.1 0 0
78.2 0 0
78.3 0 0
78.4 0 0
78.5 0 0
78.6 0 0
78.7 0 0
78.8 0 0
78.9 0 0
79 0 0
79.1 0 0
79.2 0 0
79.3 0 0
79.4 0 0
79.5 0 0
79.6 0 0
79.7 0 0
79.8 0 0
79.9 0 0
80 0 0
80.1 0 0
80.2 0 0
80.3 0 0
80.4 0 0
80.5 0 0
80.6 0 0
80.7 0 0
80.8 0 0
80.9 0 0
81 0 0
81.1 0 0
81.2 0 0
81.3 0 0
81.4 0 0
81.5 0 0
81.6 0 0
81.7 0 0
81.8 0 0
81.9 0 0
82 0 0
82.1 0 0
82.2 0 0
82.3 0 0
82.4 0 0
82.5 0 0
82.6 0 0
82.7 0 0
82.8 0 0
82.9 0 0
83 0 0
83.1 0 0
83.2 0 0
83.3 0 0
83.4 0 0
83.5 0 0
83.6 0 0
83.7 0 0
83.8 0 0
83.9 0 0
84 0 0
84.1 0 0
84.2 0 0
84.3 0 0
84.4 0 0
84.5 0 0
84.6 0 0
84.7 0 0
84.8 0 0
84.9 0 0
85 0 0
85.1 0 0
85.2 0 0
85.3 0 0
85.4 0 0
85.5 0 0
85.6 0 0
85.7 0 0
85.8 0 0
85.9 0 0
86 0 0
86.1 0 0
86.2 0 0
86.3 0 0
86.4 0 0
86.5 0 0
86.6 0 0
86.7 0 0
86.8 0 0
86.9 0 0
87 0 0
87.1 0 0
87.2 0 0
87.3 0 0
87.4 0 0
87.5 0 0
87.6 0 0
87.7 0 0
87.8 0 0
87.9 0 0
88 0 0
88.1 0 0
88.2 0 0
88.3 0 0
88.4 0 0
88.5 0 0
88.6 0 0
88.7 0 0
88.8 0 0
88.9 0 0
89 0 0
89.1 0 0
89.2 0 0
89.3 0 0
89.4 0 0
89.5 0 0
89.6 0 0
89.7 0 0
89.8 0 0
89.9 0 0
90 0 0
90.1 0 0
90.2 0 0
90.3 0 0
90.4 0 0
90.5 0 0
90.6 0 0
90.7 0 0
90.8 0 0
90.9 0 0
91 0 0
91.1 0 0
91.2 0 0
91.3 0 0
91.4 0 0
91.5 0 0
91.6 0 0
91.7 0 0
91.8 0 0
91.9 0 0
92 0 0
92.1 0 0
92.2 0 0
92.3 0 0
92.4 0 0
92.5 0 0
92.6 0 0
92.7 0 0
92.8 0 0
92.9 0 0
93 0 0
93.1 0 0
93.2 0 0
93.3 0 0
93.4 0 0
93.5 0 0
93.6 0 0
93.7 0 0
93.8 0 0
93.9 0 0
94 0 0
94.1 0 0
94.2 0 0
94.3 0 0
94.4 0 0
94.5 0 0
94.6 0 0
94.7 0 0
94.8 0 0
94.9 0 0
95 0 0
95.1 0 0
95.2 0 0
95.3 0 0
95.4 0 0
95.5 0 0
95.6 0 0
95.7 0 0
95.8 0 0
95.9 0 0
96 0 0
96.1 0 0
96.2 0 0
96.3 0 0
96.4 0 0
96.5 0 0
96.6 0 0
96.7 0 0
96.8 0 0
96.9 0 0
97 0 0
97.1 0 0
97.2 0 0
97.3 0 0
97.4 0 0
97.5 0 0
97.6 0 0
97.7 0 0
97.8 0 0
97.9 0 0
98 0 0
98.1 0 0
98.2 0 0
98.3 0 0
98.4 0 0
98.5 0 0
98.6 0 0
98.7 0 0
98.8 0 0
98.9 0 0
99 0 0
99.1 0 0
99.2 0 0
99.3 0 0
99.4 0 0
99.5 0 0
99.6 0 0
99.7 0 0
99.8 0 0
99.9 0 0
100 0 0
100.1 0 0
100.2 0 0
100.3 0 0
100.4 0 0
100.5 0 0
100.6 0 0
100.7 0 0
100.8 0 0
100.9 0 0
101 0 0
101.1 0 0
101.2 0 0
101.3 0 0
101.4 0 0
101.5 0 0
101.6 0 0
101.7 0 0
101.8 0 0
101.9 0 0
102 0 0
102.1 0 0
102.2 0 0
102.3 0 0
102.4 0 0
102.5 0 0
102.6 0 0
102.7 0 0
102.8 0 0
102.9 0 0
103 0 0
103.1 0 0
103.2 0 0
103.3 0 0
103.4 0 0
103.5 0 0
103.6 0 0
103.7 0 0
103.8 0 0
103.9 0 0
104 0 0
104.1 0 0
104.2 0 0
104.3 0 0
104.4 0 0
104.5 0 0
104.6 0 0
104.7 0 0
104.8 0 0
104.9 0 0
105 0 0
105.1 0 0
105.2 0 0
105.3 0 0
105.4 0 0
105.5 0 0
105.6 0 0
105.7 0 0
105.8 0 0
105.9 0 0
106 0 0
106.1 0 0
106.2 0 0
106.3 0 0
106.4 0 0
106.5 0 0
106.6 0 0
106.7 0 0
106.8 0 0
106.9 0 0
107 0 0
107.1 0 0
107.2 0 0
107.3 0 0
107.4 0 0
107.5 0 0
107.6 0 0
107.7 0 0
107.8 0 0
107.9 0 0
108 0 0
108.1 0 0
108.2 0 0
108.3 0 0
108.4 0 0
108.5 0 0
108.6 0 0
108.7 0 0
108.8 0 0
108.9 0 0
109 0 0
109.1 0 0
109.2 0 0
109.3 0 0
109.4 0 0
109.5 0 0
109.6 0 0
109.7 0 0
109.8 0 0
109.9 0 0
110 0 0
110.1 0 0
110.2 0 0
110.3 0 0
110.4 0 0
110.5 0 0
110.6 0 0
110.7 0 0
110.8 0 0
110.9 0 0
111 0 0
111.1 0 0
111.2 0 0
111.3 0 0
111.4 0 0
111.5 0 0
111.6 0 0
111.7 0 0
111.8 0 0
111.9 0 0
112 0 0
[...]
POINT_DATA 83304

SCALARS pressure float 1
LOOKUP_TABLE default
0
0
0
0
0
0
0
0
0
0
0
0
0
0
0
0
0
0
0
0
0
0
0
0
0
0
0
0
0
0
0
0
0
0
0
0
0
0
0
0
0
0
0
0
0
0
0
0
0
0
0
0
0
0
0
0
0
0
0
0
0
0
0
0
0
0
0
0
0
0
0
0
0
0
0
0
0
0
0
0
0
0
0
0
0
0
0
0
0
0
0
0
0
0
0
0
0
0
0
0
0
0
0
0
0
0
0
0
0
0
0
0
0
0
0
0
0
0
0
0
0
0
0
0
0
0
0
0
0
0
0
0
0
0
0
0
0
0
0
0
0
0
0
0
0
0
0
0
0
0
0
0
0
0
0
0
0
0
0
0
0
0
0
0
0
0
0
0
0
0
0
0
0
0
0
0
0
0
0
0
0
0
0
0
0
0
0
0
0
0
0
0
0
0
0
0
0
0
0
0
0
0
0
0
0
0
0
0
0
0
0
0
0
0
0
0
0
0
0
0
0
0
0
0
0
0
0
0
0
0
0
0
0
0
0
0
0
0
0
0
0
0
0
0
0
0
0
0
0
0
0
0
0
0
0
0
0
0
0
0
0
0
0
0
0
0
0
0
0
0
0
0
0
0
0
0
0
0
0
0
0
0
0
0
0
0
0
0
0
0
0
0
0
0
0
0
0
0
0
0
0
0
0
0
0
0
0
0
0
0
0
0
0
0
0
0
0
0
0
0
0
0
0
0
0
0
0
0
0
0
0
0
0
0
0
0
0
0
0
0
0
0
0
0
0
0
0
0
0
0
0
0
0
0
0
0
0
0
0
0
0
0
0
0
0
0
0
0
0
0
0
0
0
0
0
0
0
0
0
0
0
0
0
0
0
0
0
0
0
0
0
0
0
0
0
0
0
0
0
0
0
0
0
0
0
0
0
0
0
0
0
0
0
0
0
0
0
0
0
0
0
0
0
0
0
0
0
0
0
0
0
0
0
0
0
0
0
0
0
0
0
0
0
0
0
0
0
0
0
0
0
0
0
0
0
0
0
0
0
0
0
0
0
0
0
0
0
0
0
0
0
0
0
0
0
0
0
0
0
0
0
0
0
0
0
0
0
0
0
0
0
0
0
0
0
0
0
0
0
0
0
0
0
0
0
0
0
0
0
0
0
0
0
0
0
0
0
0
0
0
0
0
0
0
0
0
0
0
0
0
0
0
0
0
0
0
0
0
0
0
0
0
0
0
0
0
0
0
0
0
0
0
0
0
0
0
0
0
0
0
0
0
0
0
0
0
0
0
0
0
0
0
0
0
0
0
0
0
0
0
0
0
0
0
0
0
0
0
0
0
0
0
0
0
0
0
0
0
0
0
0
0
0
0
0
0
0
0
0
0
0
0
0
0
0
0
0
0
0
0
0
0
0
0
0
0
0
0
0
0
0
0
0
0
0
0
0
0
0
0
0
0
0
0
0
0
0
0
0
0
0
0
0
0
0
0
0
0
0
0
0
0
0
0
0
0
0
0
0
0
0
0
0
0
0
0
0
0
0
0
0
0
0
0
0
0
0
0
0
0
0
0
0
0
0
0
0
0
0
0
0
0
0
0
0
0
0
0
0
0
0
0
0
0
0
0
0
0
0
0
0
0
0
0
0
0
0
0
0
0
0
0
0
0
0
0
0
0
0
0
0
0
0
0
0
0
0
0
0
0
0
0
0
0
0
0
0
0
0
0
0
0
0
0
0
0
0
0
0
0
0
0
0
0
0
0
0
0
0
0
0
0
0
0
0
0
0
0
0
0
0
0
0
0
0
0
0
0
0
0
0
0
0
0
0
0
0
0
0
0
0
0
0
0
0
0
0
0
0
0
0
0
0
0
0
0
0
0
0
0
0
0
0
0
0
0
0
0
0
0
0
0
0
0
0
0
0
0
0
0
0
0
0
0
0
0
0
0
0
0
0
0
0
0
0
0
0
0
0
0
0
0
0
0
0
0
0
0
0
0
0
0
0
0
0
0
0
0
0
0
0
0
0
0
0
0
0
0
0
0
0
0
0
0
0
0
0
0
0
0
0
0
0
0
0
0
0
0
0
0
0
0
0
0
0
0
0
0
0
0
0
0
0
0
0
0
0
0
0
0
0
0
0
0
0
0
0
0
0
0
0
0
0
0
0
0
0
0
0
0
0
0
0
0
0
0
0
0
0
0
0
0
0
0
0
0
0
0
0
0
0
0
0
0
0
0
0
0
0
0
0
0
0
0
0
0
0
0
0
0
0
0
0
0
0
0
0
0
0
0
0
0
0
0
0
0
0
0
0
0
0
0
0
0
0
0
0
0
0
0
0
0
0
0
0
0
0
0
0
0
0
0
0
0
0
0
0
0
0
0
0
0
0
0
0
0
0
0
0
0
0
0
0
0
0
0
0
0
0
0
0
0
0
0
0
0
0
0
0
0
0
0
0
0
0
0
0
0
0
0
0
0
0
0
0
0
0
0
0
0
0
0
0
0
0
0
0
0
0
0
0
0
0
0
0
0
0
0
0
0
0
0
0
0
0
0
0
0
0
0
0
0
0
0
0
0
0
0
0
0
0
0
0
0
0
0
0
0
0
0
0
0
0
0
0
0
0
0
0
0
0
0
0
0
0
0
0
0
0
0
0
0
0
0
0
0
0
0
0
0
0
0
0
0
0
0
0
0
0
0
0
0
0
0
0
0
0
0
0
0
0
0
0
0
0
0
0
0
0
0
0
0
0
0
0
0
0
0
0
0
0
0
0
0
0
0
0
0
0
0
0
0
0
0
0
0
0
0
0
0
0
0
0
0
0
0
0
0
0
0
0
0
0
0
0
0
0
0
0
0
0
0
0
0
0
0
0
0
0
0
0
0
0
0
0
0
0
0
0
0
0
0
0
0
0
0
0
0
0
0
0
0
0
0
0
0
0
0
0
0
0
0
0
0
0
0
0
0
0
0
0
0
0
0
0
0
0
0
0
0
0
0
0
0
0
0
0
0
0
0
0
0
0
0
0
0
0
0
0
0
0
0
0
0
0
0
0
0
0
0
0
0
0
0
0
0
0
0
0
0
0
0
0
0
0
0
0
0
0
0
0
0
0
0
0
0
0
0
0
0
0
0
0
0
0
0
0
0
0
0
0
0
0
0
0
0
0
0
0
0
0
0
0
0
0
0
0
0
0
0
0
0
0
0
0
0
0
0
0
0
0
0
0
0
0
0
0
0
0
0
0
0
0
0
0
0
0
0
0
0
0
0
0
0
0
0
0
0
0
0
0
0
0
0
0
0
0
0
0
0
0
0
0
0
0
0
0
0
0
0
0
0
0
0
0
0
0
0
0
0
0
0
0
0
0
0
0
0
0
0
0
0
0
0
0
0
0
0
0
0
0
0
0
0
0
0
0
0
0
0
0
0
0
0
0
0
0
0
0
0
0
0
0
0
0
0
0
0
0
0
0
0
0
0
0
0
0
0
0
0
0
0
0
0
0
0
0
0
0
0
0
0
0
0
0
0
0
0
0
0
0
0
0
0
0
0
0
0
0
0
0
0
0
0
0
0
0
0
0
0
0
0
0
0
0
0
0
0
0
0
0
0
0
0
0
0
0
0
0
0
0
0
0
0.0776415
0.052903
0.0436505
0.0357426
0.03048
0.0271088
0.0248019
0.023116
0.0218008
0.0207277
0.0198235
0.0190436
0.0183596
0.0177519
0.0172066
0.0167134
0.0162643
0.0158532
0.0154749
0.0151254
0.0148012
0.0144993
0.0142174
0.0139533
0.0137051
0.0134714
0.0132506
0.0130416
0.0128434
0.0126549
0.0124753
0.0123039
0.0121401
0.0119833
0.0118328
0.0116884
0.0115494
0.0114156
0.0112866
0.0111621
0.0110418
0.0109254
0.0108128
0.0107037
0.0105979
0.0104952
0.0103955
0.0102987
0.0102045
0.0101129
0.0100238
0.00993702
0.0098525
0.00977015
0.00968989
0.00961163
0.00953532
0.00946088
0.00938825
0.00931738
0.00924821
0.0091807
0.0091148
0.00905046
0.00898765
0.00892632
0.00886644
0.00880799
0.00875091
0.00869519
0.00864078
0.00858768
0.00853584
0.00848523
0.00843585
0.00838765
0.00834062
0.00829474
0.00824997
0.0082063
0.00816371
0.00812218
0.00808168
0.0080422
0.00800371
0.00796619
0.00792963
0.00789401
0.0078593
0.0078255
0.00779257
0.0077605
0.00772928
0.00769888
0.00766929
0.00764049
0.00761247
0.00758519
0.00755866
0.00753285
0.00750774
0.00748332
0.00745957
0.00743648
0.00741403
0.0073922
0.00737098
0.00735036
0.00733032
0.00731084
0.00729191
0.00727352
0.00725565
0.0072383
0.00722143
0.00720506
0.00718915
0.0071737
0.0071587
0.00714413
0.00712998
0.00711624
0.0071029
0.00708995
0.00707738
0.00706517
0.00705332
0.00704181
0.00703064
0.00701979
0.00700926
0.00699904
0.00698912
0.00697949
0.00697015
0.00696108
0.00695229
0.00694376
0.00693549
0.00692747
0.0069197
0.00691216
0.00690486
0.00689778
0.00689092
0.00688427
0.00687784
0.00687162
0.00686562
0.00685984
0.00685428
0.00684895
0.00684384
0.00683896
0.0068343
0.00682983
0.00682553
0.00682134
0.00681722
0.0068131
0.00680891
0.0068046
0.00680014
0.00679553
0.00679085
0.00678627
0.00678204
0.00677855
0.00677628
0.00677585
0.00677791
0.00678311
0.00679202
0.00680495
0.0068218
0.00684191
0.00686377
0.00688488
0.00690154
0.0069087
0.00689995
0.00686756
0.00680276
0.00669618
0.00653859
0.00632185
0.00604028
0.00569229
0.00528229
0.00482289
0.00433708
0.0038602
0.00344118
0.00314275
0.00303974
0.00321539
0.00375537
0.0047404
0.0062374
0.00829158
0.0109209
0.0141128
0.0178228
0.0219778
0.0264837
0.0312292
0.0360877
0.0409256
0.0456177
0.050045
0.0540789
0.0575878
0.0604791
0.0627302
0.0643703
0.0654322
0.0659262
0.0658497
0.0652106
0.0640403
0.062391
0.0603271
0.0579175
0.0552312
0.0523357
0.0492951
0.0461697
0.0430144
0.039878
0.0368022
0.0338212
0.0309622
0.0282452
0.0256841
0.0232873
0.0210584
0.0189973
0.0171009
0.0153637
0.0137786
0.0123373
0.0110309
0.00984989
0.00878496
0.00782678
0.00696635
0.00619503
0.00550469
0.00488769
0.00433695
0.00384589
0.00340852
0.00301931
0.00267326
0.00236581
0.00209286
0.00185068
0.00163593
0.0014456
0.00127701
0.00112773
0.000995616
0.000878734
0.000775369
0.000683989
0.00060323
0.000531881
0.000468864
0.000413221
0.000364103
0.000320756
0.000282511
0.000248776
0.000219025
0.000192795
0.000169674
0.000149297
0.000131343
0.000115527
0.000101597
8.93305e-05
7.85309e-05
6.90247e-05
6.06587e-05
5.32973e-05
4.68212e-05
4.11249e-05
3.61155e-05
3.17109e-05
2.78387e-05
2.44353e-05
2.14444e-05
1.88165e-05
1.65078e-05
1.44801e-05
1.26993e-05
1.11357e-05
9.76305e-06
8.55821e-06
7.50084e-06
6.57305e-06
5.7591e-06
5.04514e-06
4.41898e-06
3.86993e-06
3.38856e-06
2.96659e-06
2.59677e-06
2.27269e-06
1.98875e-06
1.74001e-06
1.52215e-06
1.33136e-06
1.1643e-06
1.01805e-06
8.90039e-07
7.78002e-07
6.79965e-07
5.94192e-07
5.1916e-07
4.53535e-07
3.96146e-07
3.45966e-07
3.02098e-07
2.63753e-07
2.30241e-07
2.00958e-07
1.75373e-07
1.53023e-07
1.33501e-07
1.16454e-07
1.01568e-07
8.85721e-08
7.7228e-08
6.73272e-08
5.86872e-08
5.11486e-08
4.4572e-08
3.88355e-08
3.38325e-08
2.94699e-08
2.56661e-08
2.23502e-08
1.946e-08
1.69411e-08
1.47463e-08
1.2834e-08
1.11681e-08
9.71713e-09
8.45351e-09
7.3532e-09
6.39523e-09
5.5613e-09
4.83546e-09
4.20378e-09
3.65413e-09
3.17591e-09
2.75991e-09
2.39808e-09
2.0834e-09
1.80978e-09
1.57188e-09
1.36507e-09
1.18532e-09
1.0291e-09
8.93347e-10
7.75404e-10
6.72943e-10
5.83945e-10
5.06652e-10
4.39532e-10
3.81254e-10
3.30661e-10
2.86744e-10
2.48629e-10
2.15552e-10
1.86851e-10
1.61952e-10
1.40352e-10
1.21618e-10
1.05371e-10
9.1283e-11
7.90685e-11
6.84798e-11
5.93016e-11
5.13471e-11
4.4454e-11
3.84815e-11
3.33073e-11
2.88251e-11
2.49431e-11
2.15811e-11
1.867e-11
1.61496e-11
1.39677e-11
1.20791e-11
1.04446e-11
9.03011e-12
7.80624e-12
6.74743e-12
5.83151e-12
5.03931e-12
4.35419e-12
3.76176e-12
3.24954e-12
2.80672e-12
2.42396e-12
2.09313e-12
1.80724e-12
1.56021e-12
1.34678e-12
1.1624e-12
1.00315e-12
8.65607e-13
7.46834e-13
6.4428e-13
5.55742e-13
4.79312e-13
4.13344e-13
3.56412e-13
3.07284e-13
2.64896e-13
2.28327e-13
1.96783e-13
1.69577e-13
1.46114e-13
1.25882e-13
1.08438e-13
9.34008e-14
8.04387e-14
6.9267e-14
5.96397e-14
5.13442e-14
4.41971e-14
3.80403e-14
3.27372e-14
2.81699e-14
2.42369e-14
2.08504e-14
1.79349e-14
1.54252e-14
1.3265e-14
1.1406e-14
9.80623e-15
8.42983e-15
7.24572e-15
6.22716e-15
5.35112e-15
4.59775e-15
3.94995e-15
3.39299e-15
2.91421e-15
2.50268e-15
2.14899e-15
1.84505e-15
1.58391e-15
1.35955e-15
1.16683e-15
1.0013e-15
8.59142e-16
7.37071e-16
6.3226e-16
5.42279e-16
4.65039e-16
3.98742e-16
3.41845e-16
2.9302e-16
2.51126e-16
2.15187e-16
1.84364e-16
1.57937e-16
1.3529e-16
1.15895e-16
9.92951e-17
8.50938e-17
7.29468e-17
6.2553e-17
5.36497e-17
4.60087e-17
3.9433e-17
3.37547e-17
2.88319e-17
2.45462e-17
2.08016e-17
1.75248e-17
1.46672e-17
1.22067e-17
1.01467e-17
8.50921e-18
7.31984e-18
6.58505e-18
6.26625e-18
6.25854e-18
6.38405e-18
6.40806e-18
6.08116e-18
5.20206e-18
3.68688e-18
1.62411e-18
-7.06788e-19
-2.86866e-18
-4.35469e-18
-4.71655e-18
-3.70277e-18
-1.36764e-18
1.88692e-18
5.36065e-18
8.19574e-18
9.58229e-18
8.97898e-18
6.2884e-18
1.93254e-18
-3.20326e-18
-7.9557e-18
-1.1159e-17
-1.19429e-17
-9.9748e-18
-5.57675e-18
3.20225e-19
6.38099e-18
1.11829e-17
1.35653e-17
1.29223e-17
9.36117e-18
3.68489e-18
-2.79974e-18
-8.59862e-18
-1.23917e-17
-1.33478e-17
-1.13138e-17
-6.83523e-18
-1.00635e-18
4.80735e-18
9.30101e-18
1.15332e-17
1.11276e-17
8.32875e-18
3.90878e-18
-1.04538e-18
-5.40361e-18
-8.25482e-18
-9.09778e-18
-7.92123e-18
-5.16369e-18
-1.57317e-18
1.99094e-18
4.76204e-18
6.22826e-18
6.21925e-18
4.90587e-18
2.72286e-18
2.41192e-19
-1.9746e-18
-3.48969e-18
-4.0773e-18
-3.74038e-18
-2.67932e-18
-1.22054e-18
2.72454e-19
1.48311e-18
2.20291e-18
2.35951e-18
2.0107e-18
1.31112e-18
4.63343e-19
-3.33194e-19
-9.23968e-19
-1.22425e-18
-1.22467e-18
-9.79629e-19
-5.84254e-19
-1.46915e-19
2.35911e-19
4.97472e-19
6.08847e-19
5.77506e-19
4.38494e-19
2.4162e-19
3.81745e-20
-1.29922e-19
-2.36739e-19
-2.74238e-19
-2.50056e-19
-1.8253e-19
-9.4618e-20
-8.2061e-21
6.00721e-20
1.00997e-19
1.12911e-19
1.00291e-19
7.14073e-20
3.57689e-20
1.92491e-21
-2.40052e-20
-3.89549e-20
-4.27658e-20
-3.74949e-20
-2.64514e-20
-1.32263e-20
-9.13986e-22
8.36834e-21
1.36413e-20
1.49572e-20
1.31167e-20
9.31425e-21
4.79932e-21
6.19361e-22
-2.52834e-21
-4.33538e-21
-4.83433e-21
-4.29744e-21
-3.11717e-21
-1.69683e-21
-3.70246e-22
6.42209e-22
1.243e-21
1.44039e-21
1.31601e-21
9.87784e-22
5.76883e-22
1.83811e-22
-1.24378e-22
-3.16657e-22
-3.92955e-22
-3.74742e-22
-2.94406e-22
-1.85831e-22
-7.75948e-23
1.07008e-23
6.92736e-23
9.68856e-23
9.83681e-23
8.17957e-23
5.59551e-23
2.84947e-23
4.88243e-24
-1.1892e-23
-2.10575e-23
-2.34751e-23
-2.09427e-23
-1.55564e-23
-9.22845e-24
-3.40088e-24
1.05918e-24
3.82286e-24
4.97687e-24
4.86631e-24
3.94406e-24
2.65209e-24
1.34563e-24
2.59339e-25
-4.9287e-25
-8.96108e-25
-1.00245e-24
-8.98063e-25
-6.75796e-25
-4.16272e-25
-1.77918e-25
5.47296e-27
1.21882e-25
1.75347e-25
1.79442e-25
1.5142e-25
1.07835e-25
6.18879e-26
2.2339e-26
-6.38997e-27
-2.33865e-26
-3.01047e-26
-2.92305e-26
-2.37541e-26
-1.63355e-26
-8.96727e-27
-2.88069e-27
1.37889e-27
3.78584e-27
4.64062e-27
4.39334e-27
3.50893e-27
2.38161e-27
1.29457e-27
4.14447e-28
-1.91861e-28
-5.29794e-28
-6.47929e-28
-6.12815e-28
-4.90598e-28
-3.35962e-28
-1.87396e-28
-6.71036e-29
1.62686e-29
6.36858e-29
8.17183e-29
7.91902e-29
6.47917e-29
4.56771e-29
2.68884e-29
1.13691e-29
3.25995e-31
-6.26407e-30
-9.14793e-30
-9.37564e-30
-8.00183e-30
-5.90922e-30
-3.73371e-30
-1.8615e-30
-4.69059e-31
4.18694e-31
8.69326e-31
9.93149e-31
9.0725e-31
7.13497e-31
4.88312e-31
2.80944e-31
1.16942e-31
4.04625e-33
-6.15019e-32
-8.94572e-32
-9.14326e-32
-7.82294e-32
-5.84424e-32
-3.80239e-32
-2.04643e-32
-7.29336e-33
1.31695e-33
5.9919e-33
7.70792e-33
7.48403e-33
6.20095e-33
4.52143e-33
2.88044e-33
1.5161e-33
5.18525e-34
-1.19256e-34
-4.57347e-34
-5.76027e-34
-5.54186e-34
-4.57551e-34
-3.34234e-34
-2.15047e-34
-1.16412e-34
-4.423e-35
2.32163e-36
2.76444e-35
3.74252e-35
3.71755e-35
3.14574e-35
2.36078e-35
1.57782e-35
9.14131e-36
4.15545e-36
8.19421e-37
-1.11775e-36
-2.00432e-36
-2.1881e-36
-1.96362e-36
-1.55175e-36
-1.10003e-36
-6.94021e-37
-3.72963e-37
-1.45245e-37
-1.41757e-39
7.61119e-38
1.06651e-37
1.07522e-37
9.23915e-38
7.09265e-38
4.92191e-38
3.055e-38
1.62168e-38
6.2713e-39
9.73815e-41
-3.18379e-39
-4.46003e-39
-4.49297e-39
-3.86556e-39
-2.98095e-39
-2.08857e-39
-1.32059e-39
-7.28303e-40
-3.13165e-40
-5.03398e-41
9.51315e-41
1.58413e-40
1.69671e-40
1.52102e-40
1.21923e-40
8.93795e-41
6.01449e-41
3.67025e-41
1.95264e-41
7.9813e-42
9.48443e-43
-2.78252e-42
-4.29781e-42
-4.46631e-42
-3.9225e-42
-3.09117e-42
-2.22978e-42
-1.47401e-42
-8.78233e-43
-4.477e-43
-1.61928e-43
9.79218e-45
9.90557e-44
1.33475e-43
1.34772e-43
1.18644e-43
9.55331e-44
7.17629e-44
5.06826e-44
3.36653e-44
2.08871e-44
1.1888e-44
5.94403e-45
2.29222e-45
2.50313e-46
-7.33419e-46
-1.07238e-45
-1.05611e-45
-8.74097e-46
-6.40976e-46
-4.19121e-46
-2.36851e-46
-1.0201e-46
-1.14214e-47
4.29787e-47
7.0474e-47
7.96146e-47
7.73683e-47
6.89298e-47
5.78755e-47
4.64678e-47
3.59879e-47
2.70379e-47
1.97848e-47
1.41435e-47
9.90273e-48
6.80755e-48
4.60703e-48
3.07931e-48
2.04136e-48
1.34967e-48
8.9632e-49
6.02955e-49
4.14486e-49
2.93315e-49
2.14511e-49
1.61998e-49
1.25694e-49
9.94458e-50
7.95878e-50
6.39813e-50
5.13872e-50
4.10767e-50
3.2598e-50
2.56441e-50
1.99818e-50
1.54162e-50
1.17759e-50
8.90726e-51
6.67314e-51
4.9532e-51
3.6438e-51
2.65758e-51
1.92233e-51
1.3795e-51
9.82437e-52
6.94551e-52
4.87575e-52
3.39963e-52
2.35493e-52
1.621e-52
1.10901e-52
7.54268e-53
5.10072e-53
3.43027e-53
2.29449e-53
1.52677e-53
1.01076e-53
6.65841e-54
4.36511e-54
2.84822e-54
1.84992e-54
1.19613e-54
7.7001e-55
4.93565e-55
3.15037e-55
2.00256e-55
1.2678e-55
7.99444e-56
5.02148e-56
3.14203e-56
1.95863e-56
1.21643e-56
7.52729e-57
4.64122e-57
2.85162e-57
1.74598e-57
1.06536e-57
6.47871e-58
3.92673e-58
2.37217e-58
1.4284e-58
8.57358e-59
5.1298e-59
3.05972e-59
1.81937e-59
1.07853e-59
6.37436e-60
3.75615e-60
2.20683e-60
1.29278e-60
7.55138e-61
4.39831e-61
2.55455e-61
1.47954e-61
8.54541e-62
4.92203e-62
2.8273e-62
1.61968e-62
9.25383e-63
5.27306e-63
2.99683e-63
1.69875e-63
9.60445e-64
5.4163e-64
3.04669e-64
1.70945e-64
9.5675e-65
5.34147e-65
2.97476e-65
1.65265e-65
9.15909e-66
5.0638e-66
2.79294e-66
1.53678e-66
8.436e-67
4.62e-67
2.52427e-67
1.37601e-67
7.4836e-68
4.06075e-68
2.19844e-68
1.18753e-68
6.40025e-69
3.44178e-69
1.84674e-69
9.88715e-70
5.28184e-70
2.81549e-70
1.49755e-70
7.94829e-71
4.20955e-71
2.22471e-71
1.17325e-71
6.17436e-72
3.24253e-72
1.6993e-72
8.88701e-73
4.63815e-73
2.4157e-73
1.25561e-73
6.513e-74
3.37156e-74
1.74183e-74
8.9807e-75
4.62114e-75
2.37316e-75
1.21631e-75
6.22173e-76
3.17633e-76
1.61844e-76
8.23043e-77
4.17744e-77
2.11623e-77
1.07e-77
5.39982e-78
2.71988e-78
1.36741e-78
6.86167e-79
3.43674e-79
1.71812e-79
8.57342e-80
4.27021e-80
2.12297e-80
1.05352e-80
5.21848e-81
2.58021e-81
1.27344e-81
6.27358e-82
3.08511e-82
1.51442e-82
7.42071e-83
3.6297e-83
1.77225e-83
8.63799e-84
4.20276e-84
2.04124e-84
9.89676e-85
4.79e-85
2.31432e-85
1.11625e-85
5.37462e-86
2.58338e-86
1.23961e-86
5.93801e-87
2.8396e-87
1.35562e-87
6.46076e-88
3.07396e-88
1.4601e-88
6.92375e-89
3.27775e-89
1.54913e-89
7.30935e-90
3.44312e-90
1.61924e-90
7.60251e-91
3.56362e-91
1.6677e-91
7.79178e-92
3.63456e-92
1.69264e-92
7.87003e-93
3.65335e-93
1.6932e-93
7.8349e-94
3.61964e-94
1.66958e-94
7.68888e-95
3.53534e-95
1.62299e-95
7.43907e-96
3.4044e-96
1.55555e-96
7.09664e-97
3.23256e-97
1.47017e-97
6.67602e-98
3.0269e-98
1.37029e-98
6.19387e-99
2.79542e-99
1.25971e-99
5.66806e-100
2.54648e-100
1.14232e-100
5.11662e-101
2.28836e-101
1.02191e-101
4.55674e-102
2.02883e-102
9.01969e-103
4.00399e-103
1.7748e-103
7.85536e-104
3.4717e-104
1.53208e-104
6.75121e-105
2.97062e-105
1.30521e-105
5.72638e-106
2.5087e-106
1.09746e-106
4.79406e-107
2.09117e-107
9.10862e-108
3.96179e-108
1.72072e-108
7.46289e-109
3.23211e-109
1.39781e-109
6.03661e-110
2.6033e-110
1.1211e-110
4.82114e-111
2.07036e-111
8.87837e-112
3.80201e-112
1.62587e-112
6.94314e-113
2.96089e-113
1.26091e-113
5.36226e-114
2.27725e-114
9.65776e-115
4.0902e-115
1.72988e-115
7.30627e-116
3.08163e-116
1.298e-116
5.45981e-117
2.29346e-117
9.62093e-118
4.03047e-118
1.6862e-118
7.04497e-119
2.93944e-119
1.22481e-119
5.09674e-120
2.11805e-120
8.79027e-121
3.64327e-121
1.50801e-121
6.23363e-122
2.57339e-122
1.06095e-122
4.36835e-123
1.79625e-123
7.37646e-124
3.02525e-124
1.2391e-124
5.06859e-125
2.07063e-125
8.44801e-126
3.44226e-126
1.40079e-126
5.69299e-127
2.31073e-127
9.36698e-128
3.79222e-128
1.53331e-128
6.19174e-129
2.49713e-129
1.00581e-129
4.04614e-130
1.6256e-130
6.52284e-131
2.61403e-131
1.04626e-131
4.18232e-132
1.66975e-132
6.65795e-133
2.65146e-133
1.0546e-133
4.18937e-134
1.66215e-134
6.58641e-135
2.60669e-135
1.03037e-135
4.0678e-136
1.60394e-136
6.31661e-137
2.48454e-137
9.76052e-138
3.82973e-138
1.50083e-138
5.87443e-139
2.29652e-139
8.96695e-140
3.49697e-140
1.36211e-140
5.29917e-141
2.0591e-141
7.99142e-142
3.09775e-142
1.19935e-142
4.63795e-143
1.79136e-143
6.91071e-144
2.66282e-144
1.02481e-144
3.93939e-145
1.5125e-145
5.80029e-146
2.22171e-146
8.49988e-147
3.24806e-147
1.23972e-147
4.7262e-148
1.79966e-148
6.84477e-149
2.60027e-149
9.86666e-150
3.73951e-150
1.41564e-150
5.35286e-151
2.02169e-151
7.62673e-152
2.87382e-152
1.08163e-152
4.06627e-153
1.52691e-153
5.72702e-154
2.14559e-154
8.02907e-155
3.00114e-155
1.1205e-155
4.17869e-156
1.55658e-156
5.79177e-157
2.15256e-157
7.99111e-158
2.96324e-158
1.09757e-158
4.06079e-159
1.50071e-159
5.53981e-160
2.0427e-160
7.52358e-161
2.76795e-161
1.0172e-161
3.73393e-162
1.36913e-162
5.01459e-163
1.83461e-163
6.70455e-164
2.44745e-164
8.92432e-165
3.25055e-165
1.18265e-165
4.29813e-166
1.56035e-166
5.65832e-167
2.04963e-167
7.41629e-168
2.68054e-168
9.67793e-169
3.49034e-169
1.25742e-169
4.52499e-170
1.62661e-170
5.84087e-171
2.09508e-171
7.50676e-172
2.6868e-172
9.60612e-173
3.43078e-173
1.22396e-173
4.36192e-174
1.55282e-174
5.52201e-175
1.96159e-175
6.96073e-176
2.46738e-176
8.73687e-177
3.09038e-177
1.09196e-177
3.85423e-178
1.35897e-178
4.78652e-179
1.68411e-179
5.91921e-180
2.07825e-180
7.28909e-181
2.55383e-181
8.93828e-182
3.12507e-182
1.09147e-182
3.80808e-183
1.32724e-183
4.621e-184
1.6072e-184
5.5841e-185
1.93814e-185
6.71991e-186
2.32751e-186
8.05325e-187
2.78356e-187
9.61127e-188
3.31522e-188
1.14234e-188
3.93219e-189
1.35215e-189
4.64482e-190
1.59393e-190
5.46415e-191
1.87125e-191
6.40174e-192
2.18787e-192
7.46967e-193
2.54765e-193
8.68033e-194
2.95455e-194
1.00463e-194
3.41258e-195
1.15803e-195
3.92569e-196
1.32946e-196
4.49777e-197
1.52013e-197
5.1325e-198
1.73117e-198
5.83334e-199
1.96362e-199
6.60336e-200
2.21839e-200
7.44521e-201
2.49623e-201
8.361e-202
2.7977e-202
9.35216e-203
3.12315e-203
1.04194e-203
3.47266e-204
1.15626e-204
3.84607e-205
1.27806e-205
4.24285e-206
1.40714e-206
4.66219e-207
1.54318e-207
5.10291e-208
1.68575e-208
5.56346e-209
1.83431e-209
6.04193e-210
1.98818e-210
6.53603e-211
2.14659e-211
7.0431e-212
2.30864e-212
7.56012e-213
2.47332e-213
8.08375e-214
2.63952e-214
8.61033e-215
2.80605e-215
9.13596e-216
2.97163e-216
9.65649e-217
3.13492e-217
1.01676e-217
3.29454e-218
1.06649e-218
3.44909e-219
1.11439e-219
3.59714e-220
1.16001e-220
3.7373e-221
1.20293e-221
3.86821e-222
1.24271e-222
3.98857e-223
1.27895e-223
4.09716e-224
1.3113e-224
4.19288e-225
1.33941e-225
4.27471e-226
1.36299e-226
4.34182e-227
1.3818e-227
4.39349e-228
1.39563e-228
4.42919e-229
1.40435e-229
4.44857e-230
1.40787e-230
4.45143e-231
1.40616e-231
4.43779e-232
1.39925e-232
4.40783e-233
1.38724e-233
4.36191e-234
1.37026e-234
4.30058e-235
1.3485e-235
4.22453e-236
1.32223e-236
4.13461e-237
1.29171e-237
4.0318e-238
1.25729e-238
3.9172e-239
1.21932e-239
3.79198e-240
1.1782e-240
3.65742e-241
1.13432e-241
3.51484e-242
1.08813e-242
3.36558e-243
1.04004e-243
3.21103e-244
9.90483e-245
3.05252e-245
9.39893e-246
2.89139e-246
8.88681e-247
2.72894e-247
8.37246e-248
2.56639e-248
7.85964e-249
2.40489e-249
7.35187e-250
2.2455e-250
6.8524e-251
2.08922e-251
6.36413e-252
1.9369e-252
5.88966e-253
1.78932e-253