# vtk DataFile Version 2.0
FlowField
ASCII
DATASET STRUCTURED_GRID
DIMENSIONS 1602 1 52
POINTS 83304 float
0 0 0
0.1 0 0
0.2 0 0
0.3 0 0
0.4 0 0
0.5 0 0
0.6 0 0
0.7 0 0
0.8 0 0
0.9 0 0
1 0 0
1.1 0 0
1.2 0 0
1.3 0 0
1.4 0 0
1.5 0 0
1.6 0 0
1.7 0 0
1.8 0 0
1.9 0 0
2 0 0
2.1 0 0
2.2 0 0
2.3 0 0
2.4 0 0
2.5 0 0
2.6 0 0
2.7 0 0
2.8 0 0
2.9 0 0
3 0 0
3.1 0 0
3.2 0 0
3.3 0 0
3.4 0 0
3.5 0 0
3.6 0 0
3.7 0 0
3.8 0 0
3.9 0 0
4 0 0
4.1 0 0
4.2 0 0
4.3 0 0
4.4 0 0
4.5 0 0
4.6 0 0
4.7 0 0
4.8 0 0
4.9 0 0
5 0 0
5.1 0 0
5.2 0 0
5.3 0 0
5.4 0 0
5.5 0 0
5.6 0 0
5.7 0 0
5.8 0 0
5.9 0 0
6 0 0
6.1 0 0
6.2 0 0
6.3 0 0
6.4 0 0
6.5 0 0
6.6 0 0
6.7 0 0
6.8 0 0
6.9 0 0
7 0 0
7.1 0 0
7.2 0 0
7.3 0 0
7.4 0 0
7.5 0 0
7.6 0 0
7.7 0 0
7.8 0 0
7.9 0 0
8 0 0
8.1 0 0
8.2 0 0
8.3 0 0
8.4 0 0
8.5 0 0
8.6 0 0
8.7 0 0
8.8 0 0
8.9 0 0
9 0 0
9.1 0 0
9.2 0 0
9.3 0 0
9.4 0 0
9.5 0 0
9.6 0 0
9.7 0 0
9.8 0 0
9.9 0 0
10 0 0
10.1 0 0
10.2 0 0
10.3 0 0
10.4 0 0
10.5 0 0
10.6 0 0
10.7 0 0
10.8 0 0
10.9 0 0
11 0 0
11.1 0 0
11.2 0 0
11.3 0 0
11.4 0 0
11.5 0 0
11.6 0 0
11.7 0 0
11.8 0 0
11.9 0 0
12 0 0
12.1 0 0
12.2 0 0
12.3 0 0
12.4 0 0
12.5 0 0
12.6 0 0
12.7 0 0
12.8 0 0
12.9 0 0
13 0 0
13.1 0 0
13.2 0 0
13.3 0 0
13.4 0 0
13.5 0 0
13.6 0 0
13.7 0 0
13.8 0 0
13.9 0 0
14 0 0
14.1 0 0
14.2 0 0
14.3 0 0
14.4 0 0
14.5 0 0
14.6 0 0
14.7 0 0
14.8 0 0
14.9 0 0
15 0 0
15.1 0 0
15.2 0 0
15.3 0 0
15.4 0 0
15.5 0 0
15.6 0 0
15.7 0 0
15.8 0 0
15.9 0 0
16 0 0
16.1 0 0
16.2 0 0
16.3 0 0
16.4 0 0
16.5 0 0
16.6 0 0
16.7 0 0
16.8 0 0
16.9 0 0
17 0 0
17.1 0 0
17.2 0 0
17.3 0 0
17.4 0 0
17.5 0 0
17.6 0 0
17.7 0 0
17.8 0 0
17.9 0 0
18 0 0
18.1 0 0
18.2 0 0
18.3 0 0
18.4 0 0
18.5 0 0
18.6 0 0
18.7 0 0
18.8 0 0
18.9 0 0
19 0 0
19.1 0 0
19.2 0 0
19.3 0 0
19.4 0 0
19.5 0 0
19.6 0 0
19.7 0 0
19.8 0 0
19.9 0 0
20 0 0
20.1 0 0
20.2 0 0
20.3 0 0
20.4 0 0
20.5 0 0
20.6 0 0
20.7 0 0
20.8 0 0
20.9 0 0
21 0 0
21.1 0 0
21.2 0 0
21.3 0 0
21.4 0 0
21.5 0 0
21.6 0 0
21.7 0 0
21.8 0 0
21.9 0 0
22 0 0
22.1 0 0
22.2 0 0
22.3 0 0
22.4 0 0
22.5 0 0
22.6 0 0
22.7 0 0
22.8 0 0
22.9 0 0
23 0 0
23.1 0 0
23.2 0 0
23.3 0 0
23.4 0 0
23.5 0 0
23.6 0 0
23.7 0 0
23.8 0 0
23.9 0 0
24 0 0
24.1 0 0
24.2 0 0
24.3 0 0
24.4 0 0
24.5 0 0
24.6 0 0
24.7 0 0
24.8 0 0
24.9 0 0
25 0 0
25.1 0 0
25.2 0 0
25.3 0 0
25.4 0 0
25.5 0 0
25.6 0 0
25.7 0 0
25.8 0 0
25.9 0 0
26 0 0
26.1 0 0
26.2 0 0
26.3 0 0
26.4 0 0
26.5 0 0
26.6 0 0
26.7 0 0
26.8 0 0
26.9 0 0
27 0 0
27.1 0 0
27.2 0 0
27.3 0 0
27.4 0 0
27.5 0 0
27.6 0 0
27.7 0 0
27.8 0 0
27.9 0 0
28 0 0
28.1 0 0
28.2 0 0
28.3 0 0
28.4 0 0
28.5 0 0
28.6 0 0
28.7 0 0
28.8 0 0
28.9 0 0
29 0 0
29.1 0 0
29.2 0 0
29.3 0 0
29.4 0 0
29.5 0 0
29.6 0 0
29.7 0 0
29.8 0 0
29.9 0 0
30 0 0
30.1 0 0
30.2 0 0
30.3 0 0
30.4 0 0
30.5 0 0
30.6 0 0
30.7 0 0
30.8 0 0
30.9 0 0
31 0 0
31.1 0 0
31.2 0 0
31.3 0 0
31.4 0 0
31.5 0 0
31.6 0 0
31.7 0 0
31.8 0 0
31.9 0 0
32 0 0
32.1 0 0
32.2 0 0
32.3 0 0
32.4 0 0
32.5 0 0
32.6 0 0
32.7 0 0
32.8 0 0
32.9 0 0
33 0 0
33.1 0 0
33.2 0 0
33.3 0 0
33.4 0 0
33.5 0 0
33.6 0 0
33.7 0 0
33.8 0 0
33.9 0 0
34 0 0
34.1 0 0
34.2 0 0
34.3 0 0
34.4 0 0
34.5 0 0
34.6 0 0
34.7 0 0
34.8 0 0
34.9 0 0
35 0 0
35.1 0 0
35.2 0 0
35.3 0 0
35.4 0 0
35.5 0 0
35.6 0 0
35.7 0 0
35.8 0 0
35.9 0 0
36 0 0
36.1 0 0
36.2 0 0
36.3 0 0
36.4 0 0
36.5 0 0
36.6 0 0
36.7 0 0
36.8 0 0
36.9 0 0
37 0 0
37.1 0 0
37.2 0 0
37.3 0 0
37.4 0 0
37.5 0 0
37.6 0 0
37.7 0 0
37.8 0 0
37.9 0 0
38 0 0
38.1 0 0
38.2 0 0
38.3 0 0
38.4 0 0
38.5 0 0
38.6 0 0
38.7 0 0
38.8 0 0
38.9 0 0
39 0 0
39.1 0 0
39.2 0 0
39.3 0 0
39.4 0 0
39.5 0 0
39.6 0 0
39.7 0 0
39.8 0 0
39.9 0 0
40 0 0
40.1 0 0
40.2 0 0
40.3 0 0
40.4 0 0
40.5 0 0
40.6 0 0
40.7 0 0
40.8 0 0
40.9 0 0
41 0 0
41.1 0 0
41.2 0 0
41.3 0 0
41.4 0 0
41.5 0 0
41.6 0 0
41.7 0 0
41.8 0 0
41.9 0 0
42 0 0
42.1 0 0
42.2 0 0
42.3 0 0
42.4 0 0
42.5 0 0
42.6 0 0
42.7 0 0
42.8 0 0
42.9 0 0
43 0 0
43.1 0 0
43.2 0 0
43.3 0 0
43.4 0 0
43.5 0 0
43.6 0 0
43.7 0 0
43.8 0 0
43.9 0 0
44 0 0
44.1 0 0
44.2 0 0
44.3 0 0
44.4 0 0
44.5 0 0
44.6 0 0
44.7 0 0
44.8 0 0
44.9 0 0
45 0 0
45.1 0 0
45.2 0 0
45.3 0 0
45.4 0 0
45.5 0 0
45.6 0 0
45.7 0 0
45.8 0 0
45.9 0 0
46 0 0
46.1 0 0
46.2 0 0
46.3 0 0
46.4 0 0
46.5 0 0
46.6 0 0
46.7 0 0
46.8 0 0
46.9 0 0
47 0 0
47.1 0 0
47.2 0 0
47.3 0 0
47.4 0 0
47.5 0 0
47.6 0 0
47.7 0 0
47.8 0 0
47.9 0 0
48 0 0
48.1 0 0
48.2 0 0
48.3 0 0
48.4 0 0
48.5 0 0
48.6 0 0
48.7 0 0
48.8 0 0
48.9 0 0
49 0 0
49.1 0 0
49.2 0 0
49.3 0 0
49.4 0 0
49.5 0 0
49.6 0 0
49.7 0 0
49.8 0 0
49.9 0 0
50 0 0
50.1 0 0
50.2 0 0
50.3 0 0
50.4 0 0
50.5 0 0
50.6 0 0
50.7 0 0
50.8 0 0
50.9 0 0
51 0 0
51.1 0 0
51.2 0 0
51.3 0 0
51.4 0 0
51.5 0 0
51.6 0 0
51.7 0 0
51.8 0 0
51.9 0 0
52 0 0
52.1 0 0
52.2 0 0
52.3 0 0
52.4 0 0
52.5 0 0
52.6 0 0
52.7 0 0
52.8 0 0
52.9 0 0
53 0 0
53.1 0 0
53.2 0 0
53.3 0 0
53.4 0 0
53.5 0 0
53.6 0 0
53.7 0 0
53.8 0 0
53.9 0 0
54 0 0
54.1 0 0
54.2 0 0
54.3 0 0
54.4 0 0
54.5 0 0
54.6 0 0
54.7 0 0
54.8 0 0
54.9 0 0
55 0 0
55.1 0 0
55.2 0 0
55.3 0 0
55.4 0 0
55.5 0 0
55.6 0 0
55.7 0 0
55.8 0 0
55.9 0 0
56 0 0
56.1 0 0
56.2 0 0
56.3 0 0
56.4 0 0
56.5 0 0
56.6 0 0
56.7 0 0
56.8 0 0
56.9 0 0
57 0 0
57.1 0 0
57.2 0 0
57.3 0 0
57.4 0 0
57.5 0 0
57.6 0 0
57.7 0 0
57.8 0 0
57.9 0 0
58 0 0
58.1 0 0
58.2 0 0
58.3 0 0
58.4 0 0
58.5 0 0
58.6 0 0
58.7 0 0
58.8 0 0
58.9 0 0
59 0 0
59.1 0 0
59.2 0 0
59.3 0 0
59.4 0 0
59.5 0 0
59.6 0 0
59.7 0 0
59.8 0 0
59.9 0 0
60 0 0
60.1 0 0
60.2 0 0
60.3 0 0
60.4 0 0
60.5 0 0
60.6 0 0
60.7 0 0
60.8 0 0
60.9 0 0
61 0 0
61.1 0 0
61.2 0 0
61.3 0 0
61.4 0 0
61.5 0 0
61.6 0 0
61.7 0 0
61.8 0 0
61.9 0 0
62 0 0
62.1 0 0
62.2 0 0
62.3 0 0
62.4 0 0
62.5 0 0
62.6 0 0
62.7 0 0
62.8 0 0
62.9 0 0
63 0 0
63.1 0 0
63.2 0 0
63.3 0 0
63.4 0 0
63.5 0 0
63.6 0 0
63.7 0 0
63.8 0 0
63.9 0 0
64 0 0
64.1 0 0
64.2 0 0
64.3 0 0
64.4 0 0
64.5 0 0
64.6 0 0
64.7 0 0
64.8 0 0
64.9 0 0
65 0 0
65.1 0 0
65.2 0 0
65.3 0 0
65.4 0 0
65.5 0 0
65.6 0 0
65.7 0 0
65.8 0 0
65.9 0 0
66 0 0
66.1 0 0
66.2 0 0
66.3 0 0
66.4 0 0
66.5 0 0
66.6 0 0
66.7 0 0
66.8 0 0
66.9 0 0
67 0 0
67.1 0 0
67.2 0 0
67.3 0 0
67.4 0 0
67.5 0 0
67.6 0 0
67.7 0 0
67.8 0 0
67.9 0 0
68 0 0
68.1 0 0
68.2 0 0
68.3 0 0
68.4 0 0
68.5 0 0
68.6 0 0
68.7 0 0
68.8 0 0
68.9 0 0
69 0 0
69.1 0 0
69.2 0 0
69.3 0 0
69.4 0 0
69.5 0 0
69.6 0 0
69.7 0 0
69.8 0 0
69.9 0 0
70 0 0
70.1 0 0
70.2 0 0
70.3 0 0
70.4 0 0
70.5 0 0
70.6 0 0
70.7 0 0
70.8 0 0
70.9 0 0
71 0 0
71.1 0 0
71.2 0 0
71.3 0 0
71.4 0 0
71.5 0 0
71.6 0 0
71.7 0 0
71.8 0 0
71.9 0 0
72 0 0
72.1 0 0
72.2 0 0
72.3 0 0
72.4 0 0
72.5 0 0
72.6 0 0
72.7 0 0
72.8 0 0
72.9 0 0
73 0 0
73.1 0 0
73.2 0 0
73.3 0 0
73.4 0 0
73.5 0 0
73.6 0 0
73.7 0 0
73.8 0 0
73.9 0 0
74 0 0
74.1 0 0
74.2 0 0
74.3 0 0
74.4 0 0
74.5 0 0
74.6 0 0
74.7 0 0
74.8 0 0
74.9 0 0
75 0 0
75.1 0 0
75.2 0 0
75.3 0 0
75.4 0 0
75.5 0 0
75.6 0 0
75.7 0 0
75.8 0 0
75.9 0 0
76 0 0
76.1 0 0
76.2 0 0
76.3 0 0
76.4 0 0
76.5 0 0
76.6 0 0
76.7 0 0
76.8 0 0
76.9 0 0
77 0 0
77.1 0 0
77.2 0 0
77.3 0 0
77.4 0 0
77.5 0 0
77.6 0 0
77.7 0 0
77.8 0 0
77.9 0 0
78 0 0
78.1 0 0
78.2 0 0
78.3 0 0
78.4 0 0
78.5 0 0
78.6 0 0
78.7 0 0
78.8 0 0
78.9 0 0
79 0 0
79.1 0 0
79.2 0 0
79.3 0 0
79.4 0 0
79.5 0 0
79.6 0 0
79.7 0 0
79.8 0 0
79.9 0 0
80 0 0
80.1 0 0
80.2 0 0
80.3 0 0
80.4 0 0
80.5 0 0
80.6 0 0
80.7 0 0
80.8 0 0
80.9 0 0
81 0 0
81.1 0 0
81.2 0 0
81.3 0 0
81.4 0 0
81.5 0 0
81.6 0 0
81.7 0 0
81.8 0 0
81.9 0 0
82 0 0
82.1 0 0
82.2 0 0
82.3 0 0
82.4 0 0
82.5 0 0
82.6 0 0
82.7 0 0
82.8 0 0
82.9 0 0
83 0 0
83.1 0 0
83.2 0 0
83.3 0 0
83.4 0 0
83.5 0 0
83.6 0 0
83.7 0 0
83.8 0 0
83.9 0 0
84 0 0
84.1 0 0
84.2 0 0
84.3 0 0
84.4 0 0
84.5 0 0
84.6 0 0
84.7 0 0
84.8 0 0
84.9 0 0
85 0 0
85.1 0 0
85.2 0 0
85.3 0 0
85.4 0 0
85.5 0 0
85.6 0 0
85.7 0 0
85.8 0 0
85.9 0 0
86 0 0
86.1 0 0
86.2 0 0
86.3 0 0
86.4 0 0
86.5 0 0
86.6 0 0
86.7 0 0
86.8 0 0
86.9 0 0
87 0 0
87.1 0 0
87.2 0 0
87.3 0 0
87.4 0 0
87.5 0 0
87.6 0 0
87.7 0 0
87.8 0 0
87.9 0 0
88 0 0
88.1 0 0
88.2 0 0
88.3 0 0
88.4 0 0
88.5 0 0
88.6 0 0
88.7 0 0
88.8 0 0
88.9 0 0
89 0 0
89.1 0 0
89.2 0 0
89.3 0 0
89.4 0 0
89.5 0 0
89.6 0 0
89.7 0 0
89.8 0 0
89.9 0 0
90 0 0
90.1 0 0
90.2 0 0
90.3 0 0
90.4 0 0
90.5 0 0
90.6 0 0
90.7 0 0
90.8 0 0
90.9 0 0
91 0 0
91.1 0 0
91.2 0 0
91.3 0 0
91.4 0 0
91.5 0 0
91.6 0 0
91.7 0 0
91.8 0 0
91.9 0 0
92 0 0
92.1 0 0
92.2 0 0
92.3 0 0
92.4 0 0
92.5 0 0
92.6 0 0
92.7 0 0
92.8 0 0
92.9 0 0
93 0 0
93.1 0 0
93.2 0 0
93.3 0 0
93.4 0 0
93.5 0 0
93.6 0 0
93.7 0 0
93.8 0 0
93.9 0 0
94 0 0
94.1 0 0
94.2 0 0
94.3 0 0
94.4 0 0
94.5 0 0
94.6 0 0
94.7 0 0
94.8 0 0
94.9 0 0
95 0 0
95.1 0 0
95.2 0 0
95.3 0 0
95.4 0 0
95.5 0 0
95.6 0 0
95.7 0 0
95.8 0 0
95.9 0 0
96 0 0
96.1 0 0
96.2 0 0
96.3 0 0
96.4 0 0
96.5 0 0
96.6 0 0
96.7 0 0
96.8 0 0
96.9 0 0
97 0 0
97.1 0 0
97.2 0 0
97.3 0 0
97.4 0 0
97.5 0 0
97.6 0 0
97.7 0 0
97.8 0 0
97.9 0 0
98 0 0
98.1 0 0
98.2 0 0
98.3 0 0
98.4 0 0
98.5 0 0
98.6 0 0
98.7 0 0
98.8 0 0
98.9 0 0
99 0 0
99.1 0 0
99.2 0 0
99.3 0 0
99.4 0 0
99.5 0 0
99.6 0 0
99.7 0 0
99.8 0 0
99.9 0 0
100 0 0
100.1 0 0
100.2 0 0
100.3 0 0
100.4 0 0
100.5 0 0
100.6 0 0
100.7 0 0
100.8 0 0
100.9 0 0
101 0 0
101.1 0 0
101.2 0 0
101.3 0 0
101.4 0 0
101.5 0 0
101.6 0 0
101.7 0 0
101.8 0 0
101.9 0 0
102 0 0
102.1 0 0
102.2 0 0
102.3 0 0
102.4 0 0
102.5 0 0
102.6 0 0
102.7 0 0
102.8 0 0
102.9 0 0
103 0 0
103.1 0 0
103.2 0 0
103.3 0 0
103.4 0 0
103.5 0 0
103.6 0 0
103.7 0 0
103.8 0 0
103.9 0 0
104 0 0
104.1 0 0
104.2 0 0
104.3 0 0
104.4 0 0
104.5 0 0
104.6 0 0
104.7 0 0
104.8 0 0
104.9 0 0
105 0 0
105.1 0 0
105.2 0 0
105.3 0 0
105.4 0 0
105.5 0 0
105.6 0 0
105.7 0 0
105.8 0 0
105.9 0 0
106 0 0
106.1 0 0
106.2 0 0
106.3 0 0
106.4 0 0
106.5 0 0
106.6 0 0
106.7 0 0
106.8 0 0
106.9 0 0
107 0 0
107.1 0 0
107.2 0 0
107.3 0 0
107.4 0 0
107.5 0 0
107.6 0 0
107.7 0 0
107.8 0 0
107.9 0 0
108 0 0
108.1 0 0
108.2 0 0
108.3 0 0
108.4 0 0
108.5 0 0
108.6 0 0
108.7 0 0
108.8 0 0
108.9 0 0
109 0 0
109.1 0 0
109.2 0 0
109.3 0 0
109.4 0 0
109.5 0 0
109.6 0 0
109.7 0 0
109.8 0 0
109.9 0 0
110 0 0
110.1 0 0
110.2 0 0
110.3 0 0
110.4 0 0
110.5 0 0
110.6 0 0
110.7 0 0
110.8 0 0
110.9 0 0
111 0 0
111.1 0 0
111.2 0 0
111.3 0 0
111.4 0 0
111.5 0 0
111.6 0 0
111.7 0 0
111.8 0 0
111.9 0 0
112 0 0
[...]
POINT_DATA 83304

SCALARS pressure float 1
LOOKUP_TABLE default
0
0
0
0
0
0
0
0
0
0
0
0
0
0
0
0
0
0
0
0
0
0
0
0
0
0
0
0
0
0
0
0
0
0
0
0
0
0
0
0
0
0
0
0
0
0
0
0
0
0
0
0
0
0
0
0
0
0
0
0
0
0
0
0
0
0
0
0
0
0
0
0
0
0
0
0
0
0
0
0
0
0
0
0
0
0
0
0
0
0
0
0
0
0
0
0
0
0
0
0
0
0
0
0
0
0
0
0
0
0
0
0
0
0
0
0
0
0
0
0
0
0
0
0
0
0
0
0
0
0
0
0
0
0
0
0
0
0
0
0
0
0
0
0
0
0
0
0
0
0
0
0
0
0
0
0
0
0
0
0
0
0
0
0
0
0
0
0
0
0
0
0
0
0
0
0
0
0
0
0
0
0
0
0
0
0
0
0
0
0
0
0
0
0
0
0
0
0
0
0
0
0
0
0
0
0
0
0
0
0
0
0
0
0
0
0
0
0
0
0
0
0
0
0
0
0
0
0
0
0
0
0
0
0
0
0
0
0
0
0
0
0
0
0
0
0
0
0
0
0
0
0
0
0
0
0
0
0
0
0
0
0
0
0
0
0
0
0
0
0
0
0
0
0
0
0
0
0
0
0
0
0
0
0
0
0
0
0
0
0
0
0
0
0
0
0
0
0
0
0
0
0
0
0
0
0
0
0
0
0
0
0
0
0
0
0
0
0
0
0
0
0
0
0
0
0
0
0
0
0
0
0
0
0
0
0
0
0
0
0
0
0
0
0
0
0
0
0
0
0
0
0
0
0
0
0
0
0
0
0
0
0
0
0
0
0
0
0
0
0
0
0
0
0
0
0
0
0
0
0
0
0
0
0
0
0
0
0
0
0
0
0
0
0
0
0
0
0
0
0
0
0
0
0
0
0
0
0
0
0
0
0
0
0
0
0
0
0
0
0
0
0
0
0
0
0
0
0
0
0
0
0
0
0
0
0
0
0
0
0
0
0
0
0
0
0
0
0
0
0
0
0
0
0
0
0
0
0
0
0
0
0
0
0
0
0
0
0
0
0
0
0
0
0
0
0
0
0
0
0
0
0
0
0
0
0
0
0
0
0
0
0
0
0
0
0
0
0
0
0
0
0
0
0
0
0
0
0
0
0
0
0
0
0
0
0
0
0
0
0
0
0
0
0
0
0
0
0
0
0
0
0
0
0
0
0
0
0
0
0
0
0
0
0
0
0
0
0
0
0
0
0
0
0
0
0
0
0
0
0
0
0
0
0
0
0
0
0
0
0
0
0
0
0
0
0
0
0
0
0
0
0
0
0
0
0
0
0
0
0
0
0
0
0
0
0
0
0
0
0
0
0
0
0
0
0
0
0
0
0
0
0
0
0
0
0
0
0
0
0
0
0
0
0
0
0
0
0
0
0
0
0
0
0
0
0
0
0
0
0
0
0
0
0
0
0
0
0
0
0
0
0
0
0
0
0
0
0
0
0
0
0
0
0
0
0
0
0
0
0
0
0
0
0
0
0
0
0
0
0
0
0
0
0
0
0
0
0
0
0
0
0
0
0
0
0
0
0
0
0
0
0
0
0
0
0
0
0
0
0
0
0
0
0
0
0
0
0
0
0
0
0
0
0
0
0
0
0
0
0
0
0
0
0
0
0
0
0
0
0
0
0
0
0
0
0
0
0
0
0
0
0
0
0
0
0
0
0
0
0
0
0
0
0
0
0
0
0
0
0
0
0
0
0
0
0
0
0
0
0
0
0
0
0
0
0
0
0
0
0
0
0
0
0
0
0
0
0
0
0
0
0
0
0
0
0
0
0
0
0
0
0
0
0
0
0
0
0
0
0
0
0
0
0
0
0
0
0
0
0
0
0
0
0
0
0
0
0
0
0
0
0
0
0
0
0
0
0
0
0
0
0
0
0
0
0
0
0
0
0
0
0
0
0
0
0
0
0
0
0
0
0
0
0
0
0
0
0
0
0
0
0
0
0
0
0
0
0
0
0
0
0
0
0
0
0
0
0
0
0
0
0
0
0
0
0
0
0
0
0
0
0
0
0
0
0
0
0
0
0
0
0
0
0
0
0
0
0
0
0
0
0
0
0
0
0
0
0
0
0
0
0
0
0
0
0
0
0
0
0
0
0
0
0
0
0
0
0
0
0
0
0
0
0
0
0
0
0
0
0
0
0
0
0
0
0
0
0
0
0
0
0
0
0
0
0
0
0
0
0
0
0
0
0
0
0
0
0
0
0
0
0
0
0
0
0
0
0
0
0
0
0
0
0
0
0
0
0
0
0
0
0
0
0
0
0
0
0
0
0
0
0
0
0
0
0
0
0
0
0
0
0
0
0
0
0
0
0
0
0
0
0
0
0
0
0
0
0
0
0
0
0
0
0
0
0
0
0
0
0
0
0
0
0
0
0
0
0
0
0
0
0
0
0
0
0
0
0
0
0
0
0
0
0
0
0
0
0
0
0
0
0
0
0
0
0
0
0
0
0
0
0
0
0
0
0
0
0
0
0
0
0
0
0
0
0
0
0
0
0
0
0
0
0
0
0
0
0
0
0
0
0
0
0
0
0
0
0
0
0
0
0
0
0
0
0
0
0
0
0
0
0
0
0
0
0
0
0
0
0
0
0
0
0
0
0
0
0
0
0
0
0
0
0
0
0
0
0
0
0
0
0
0
0
0
0
0
0
0
0
0
0
0
0
0
0
0
0
0
0
0
0
0
0
0
0
0
0
0
0
0
0
0
0
0
0
0
0
0
0
0
0
0
0
0
0
0
0
0
0
0
0
0
0
0
0
0
0
0
0
0
0
0
0
0
0
0
0
0
0
0
0
0
0
0
0
0
0
0
0
0
0
0
0
0
0
0
0
0
0
0
0
0
0
0
0
0
0
0
0
0
0
0
0
0
0
0
0
0
0
0
0
0
0
0
0
0
0
0
0
0
0
0
0
0
0
0
0
0
0
0
0
0
0
0
0
0
0
0
0
0
0
0
0
0
0
0
0
0
0
0
0
0
0
0
0
0
0
0
0
0
0
0
0
0
0
0
0
0
0
0
0
0
0
0
0
0
0
0
0
0
0
0
0
0
0
0
0
0
0
0
0
0
0
0
0
0
0
0
0
0
0
0
0
0
0
0
0
0
0
0
0
0
0
0
0
0
0
0
0
0
0
0
0
0
0
0
0
0
0
0
0
0
0
0
0
0
0
0
0
0
0
0
0
0
0
0
0
0
0
0
0
0
0
0
0
0
0
0
0
0
0
0
0
0
0
0
0
0
0
0
0
0
0
0
0
0
0
0
0
0
0
0
0
0
0
0
0
0
0
0
0
0
0
0
0
0
0
0
0
0
0
0
0
0
0
0
0
0
0
0
0
0
0
0
0
0
0
0
0
0
0
0
0
0
0
0
0
0
0
0
0
0
0
0
0
0
0
0
0
0
0
0
0
0
0
0
0
0
0
0
0
0
0
0
0
0
0
0
0
0
0
0
0
0
0
0
0
0
0
0
0
0
0
0
0
0
0
0
0
0
0
0
0
0
0
0
0
0
0
0
0
0
0
0
0
0
0
0
0
0
0
0
0
0
0
0
0
0
0
0
0
0
0.0776415
0.052903
0.0436505
0.0357426
0.03048
0.0271088
0.0248019
0.023116
0.0218008
0.0207277
0.0198235
0.0190436
0.0183596
0.0177519
0.0172066
0.0167134
0.0162644
0.0158532
0.0154749
0.0151254
0.0148012
0.0144993
0.0142174
0.0139533
0.0137051
0.0134714
0.0132506
0.0130416
0.0128434
0.0126549
0.0124753
0.0123039
0.0121401
0.0119833
0.0118328
0.0116883
0.0115494
0.0114156
0.0112866
0.0111621
0.0110418
0.0109254
0.0108128
0.0107037
0.0105979
0.0104952
0.0103955
0.0102987
0.0102045
0.0101129
0.0100238
0.00993701
0.00985249
0.00977014
0.00968988
0.00961162
0.00953531
0.00946086
0.00938823
0.00931736
0.0092482
0.00918071
0.00911482
0.00905048
0.00898766
0.00892631
0.00886642
0.00880796
0.00875089
0.00869518
0.00864079
0.00858769
0.00853586
0.00848525
0.00843585
0.00838764
0.00834061
0.00829472
0.00824995
0.00820628
0.00816369
0.00812216
0.00808166
0.00804218
0.0080037
0.0079662
0.00792965
0.00789403
0.00785932
0.0078255
0.00779257
0.0077605
0.00772928
0.00769888
0.0076693
0.0076405
0.00761247
0.0075852
0.00755866
0.00753284
0.00750772
0.00748329
0.00745952
0.00743641
0.00741393
0.00739208
0.00737084
0.00735019
0.00733014
0.00731066
0.00729175
0.0072734
0.00725559
0.00723833
0.00722158
0.00720533
0.00718955
0.00717423
0.00715934
0.00714484
0.00713071
0.00711693
0.00710347
0.00709032
0.00707749
0.00706497
0.00705279
0.00704097
0.00702957
0.00701862
0.00700818
0.00699826
0.00698888
0.00698001
0.0069716
0.00696352
0.00695561
0.00694767
0.00693947
0.00693078
0.00692145
0.00691138
0.00690066
0.00688961
0.0068788
0.00686914
0.00686186
0.00685851
0.00686085
0.00687073
0.00688983
0.0069194
0.00695988
0.00701047
0.0070687
0.00713001
0.00718737
0.00723108
0.00724871
0.00722539
0.00714431
0.00698778
0.00673871
0.00638262
0.00591023
0.00532056
0.00462448
0.00384824
0.00303677
0.00225568
0.00159146
0.0011486
0.00104342
0.00139467
0.00231193
0.00388389
0.00616765
0.00918208
0.0129068
0.017282
0.0222131
0.0275819
0.0332537
0.0390767
0.0448892
0.050541
0.0558932
0.0607897
0.0650605
0.0685769
0.0712996
0.0732588
0.074492
0.0750091
0.0748064
0.0738968
0.0723255
0.0701653
0.0675043
0.0644367
0.0610563
0.0574539
0.0537147
0.0499169
0.0461292
0.0424105
0.0388087
0.035361
0.0320947
0.0290279
0.0261711
0.0235282
0.0210981
0.0188754
0.016852
0.0150176
0.0133606
0.0118687
0.0105292
0.00932967
0.00825778
0.00730188
0.00645092
0.00569455
0.00502322
0.0044281
0.00390113
0.00343497
0.00302299
0.00265918
0.00233814
0.00205504
0.00180554
0.00158578
0.00139231
0.00122207
0.00107234
0.000940687
0.000824982
0.000723326
0.000634043
0.000555651
0.000486842
0.000426461
0.000373489
0.00032703
0.000286292
0.00025058
0.00021928
0.000191854
0.000167826
0.000146781
0.000128352
0.000112216
9.80921e-05
8.57306e-05
7.4914e-05
6.54509e-05
5.71735e-05
4.99345e-05
4.36047e-05
3.80711e-05
3.32342e-05
2.90071e-05
2.53135e-05
2.20867e-05
1.92681e-05
1.68065e-05
1.4657e-05
1.27805e-05
1.11424e-05
9.71278e-06
8.46525e-06
7.37681e-06
6.42732e-06
5.59918e-06
4.87699e-06
4.24731e-06
3.69836e-06
3.21987e-06
2.80286e-06
2.4395e-06
2.12292e-06
1.84715e-06
1.60696e-06
1.3978e-06
1.21568e-06
1.05714e-06
9.19135e-07
7.99031e-07
6.9452e-07
6.03591e-07
5.24491e-07
4.55692e-07
3.9586e-07
3.43835e-07
2.98605e-07
2.59287e-07
2.25115e-07
1.95419e-07
1.69617e-07
1.472e-07
1.27729e-07
1.10817e-07
9.61317e-08
8.33807e-08
7.23111e-08
6.27024e-08
5.43631e-08
4.71265e-08
4.08477e-08
3.54006e-08
3.06757e-08
2.65779e-08
2.30243e-08
1.99433e-08
1.72722e-08
1.49568e-08
1.29502e-08
1.12112e-08
9.70449e-09
8.39916e-09
7.26844e-09
6.28912e-09
5.44104e-09
4.70671e-09
4.07095e-09
3.52061e-09
3.04427e-09
2.63204e-09
2.27534e-09
1.96672e-09
1.69975e-09
1.46882e-09
1.26911e-09
1.09641e-09
9.4709e-10
8.18002e-10
7.06418e-10
6.09978e-10
5.26636e-10
4.54624e-10
3.92409e-10
3.38665e-10
2.92244e-10
2.52155e-10
2.17537e-10
1.87649e-10
1.61846e-10
1.39573e-10
1.20351e-10
1.03763e-10
8.94495e-11
7.71009e-11
6.64487e-11
5.7261e-11
4.93373e-11
4.25048e-11
3.66138e-11
3.15353e-11
2.71578e-11
2.33849e-11
2.01337e-11
1.73322e-11
1.49187e-11
1.28396e-11
1.10489e-11
9.50666e-12
8.17866e-12
7.03527e-12
6.05096e-12
5.20369e-12
4.47448e-12
3.84696e-12
3.30701e-12
2.84249e-12
2.44289e-12
2.0992e-12
1.80362e-12
1.54946e-12
1.33094e-12
1.14309e-12
9.81621e-13
8.42849e-13
7.23599e-13
6.21138e-13
5.33114e-13
4.57504e-13
3.92564e-13
3.36797e-13
2.88914e-13
2.47805e-13
2.12516e-13
1.82227e-13
1.56234e-13
1.3393e-13
1.14793e-13
9.8377e-14
8.42957e-14
7.22187e-14
6.18622e-14
5.2982e-14
4.53687e-14
3.88428e-14
3.32502e-14
2.84592e-14
2.43566e-14
2.08454e-14
1.78421e-14
1.52742e-14
1.3079e-14
1.12018e-14
9.59511e-15
8.21789e-15
7.03499e-15
6.01635e-15
5.13639e-15
4.37331e-15
3.70886e-15
3.12848e-15
2.62189e-15
2.18376e-15
1.81387e-15
1.51604e-15
1.29536e-15
1.15394e-15
1.086e-15
1.07395e-15
1.08727e-15
1.08564e-15
1.02674e-15
8.77391e-16
6.25325e-16
2.87746e-16
-8.6938e-17
-4.26394e-16
-6.50353e-16
-6.92117e-16
-5.20024e-16
-1.52389e-16
3.39587e-16
8.43533e-16
1.23078e-15
1.38879e-15
1.25268e-15
8.26862e-16
1.89732e-16
-5.21138e-16
-1.14066e-15
-1.51707e-15
-1.55133e-15
-1.22446e-15
-6.0489e-16
1.66429e-16
9.09924e-16
1.45147e-15
1.6653e-15
1.50458e-15
1.01196e-15
3.07581e-16
-4.41776e-16
-1.06421e-15
-1.42398e-15
-1.45224e-15
-1.16015e-15
-6.31845e-16
-3.81472e-19
5.86592e-16
1.00221e-15
1.16824e-15
1.06914e-15
7.50326e-16
3.02151e-16
-1.64964e-16
-5.4765e-16
-7.72244e-16
-8.08142e-16
-6.69755e-16
-4.07944e-16
-9.41973e-17
1.97889e-16
4.09185e-16
5.06119e-16
4.84498e-16
3.66208e-16
1.90583e-16
3.19852e-18
-1.54994e-16
-2.55795e-16
-2.87767e-16
-2.55907e-16
-1.77787e-16
-7.76141e-17
2.01008e-17
9.58061e-17
1.38141e-16
1.44803e-16
1.2131e-16
7.83235e-17
2.84083e-17
-1.69765e-17
-4.96382e-17
-6.56786e-17
-6.54026e-17
-5.2363e-17
-3.19293e-17
-9.78725e-18
9.29572e-18
2.22398e-17
2.78976e-17
2.68439e-17
2.08582e-17
1.22816e-17
3.41075e-18
-3.95431e-18
-8.75052e-18
-1.06836e-17
-1.0096e-17
-7.73851e-18
-4.51734e-18
-1.27467e-18
1.36169e-18
3.04628e-18
3.70964e-18
3.49857e-18
2.68928e-18
1.5983e-18
5.09668e-19
-3.7146e-19
-9.368e-19
-1.16881e-18
-1.11847e-18
-8.75945e-19
-5.41996e-19
-2.0552e-19
7.00413e-20
2.51382e-19
3.32799e-19
3.29067e-19
2.66494e-19
1.7445e-19
7.88712e-20
-1.59072e-21
-5.68478e-20
-8.46218e-20
-8.84384e-20
-7.51454e-20
-5.2583e-20
-2.78046e-20
-6.01377e-21
9.80924e-21
1.8742e-20
2.14217e-20
1.94175e-20
1.46346e-20
8.85225e-21
3.43848e-21
-7.63218e-22
-3.41219e-21
-4.56303e-21
-4.52141e-21
-3.70281e-21
-2.51935e-21
-1.3062e-21
-2.87631e-22
4.24971e-22
8.13665e-22
9.24373e-22
8.36086e-22
6.34974e-22
3.9641e-22
1.75371e-22
3.96426e-24
-1.06025e-22
-1.57865e-22
-1.63811e-22
-1.39655e-22
-1.00636e-22
-5.8956e-23
-2.27577e-23
3.79677e-24
1.97705e-23
2.64074e-23
2.60945e-23
2.15139e-23
1.50642e-23
8.55152e-24
3.10241e-24
-7.70656e-25
-3.02161e-24
-3.89868e-24
-3.7876e-24
-3.09182e-24
-2.15641e-24
-1.23175e-24
-4.6797e-25
7.11503e-26
3.8491e-25
5.10756e-25
5.02742e-25
4.1573e-25
2.95791e-25
1.75955e-25
7.59082e-26
4.07663e-27
-3.92184e-26
-5.85148e-26
-6.04665e-26
-5.18647e-26
-3.84497e-26
-2.43877e-26
-1.22291e-26
-3.15507e-27
2.6491e-27
5.6096e-27
6.43825e-27
5.89557e-27
4.64525e-27
3.18607e-27
1.83987e-27
7.73839e-28
3.89452e-29
-3.88889e-28
-5.72824e-28
-5.88126e-28
-5.04766e-28
-3.78387e-28
-2.47494e-28
-1.34661e-28
-4.98031e-29
5.9156e-30
3.64561e-29
4.80338e-29
4.71385e-29
3.93799e-29
2.89811e-29
1.87192e-29
1.01235e-29
3.78553e-30
-3.17883e-31
-2.54802e-30
-3.39659e-30
-3.35029e-30
-2.8167e-30
-2.09602e-30
-1.3824e-30
-7.81482e-31
-3.33867e-31
-3.82506e-32
1.29387e-31
2.01748e-31
2.11213e-31
1.84993e-31
1.43306e-31
9.9468e-32
6.10216e-32
3.12304e-32
1.05518e-32
-2.13912e-33
-8.64744e-33
-1.087e-32
-1.04656e-32
-8.71472e-33
-6.50281e-33
-4.37096e-33
-2.5956e-33
-1.2709e-33
-3.80094e-34
1.49858e-34
4.10925e-34
4.9138e-34
4.64431e-34
3.84479e-34
2.87973e-34
1.96538e-34
1.20822e-34
6.41506e-35
2.55235e-35
1.82059e-36
-1.07316e-35
-1.56998e-35
-1.60263e-35
-1.39031e-35
-1.08167e-35
-7.67353e-36
-4.94963e-36
-2.83049e-36
-1.3252e-36
-3.508e-37
2.11081e-37
4.80014e-37
5.5908e-37
5.28195e-37
4.44019e-37
3.4325e-37
2.47167e-37
1.66143e-37
1.03506e-37
5.85039e-38
2.83928e-38
9.78331e-39
-5.83584e-40
-5.45895e-39
-6.96383e-39
-6.61374e-39
-5.41409e-39
-3.97807e-39
-2.63961e-39
-1.5482e-39
-7.41524e-40
-1.96969e-40
1.34514e-40
3.08026e-40
3.73823e-40
3.7263e-40
3.34679e-40
2.80705e-40
2.23767e-40
1.71236e-40
1.26562e-40
9.07125e-41
6.32271e-41
4.29486e-41
2.84883e-41
1.84955e-41
1.17922e-41
7.42256e-42
4.65215e-42
2.94121e-42
1.9088e-42
1.296e-42
9.3334e-43
7.1417e-43
5.74196e-43
4.76532e-43
4.01252e-43
3.38396e-43
2.83491e-43
2.34829e-43
1.91904e-43
1.54587e-43
1.22746e-43
9.61077e-44
7.4248e-44
5.66347e-44
4.26828e-44
3.18045e-44
2.34456e-44
1.71091e-44
1.23657e-44
8.85626e-45
6.28803e-45
4.42781e-45
3.09339e-45
2.14486e-45
1.47644e-45
1.00928e-45
6.85322e-46
4.6235e-46
3.09983e-46
2.06577e-46
1.36863e-46
9.01621e-47
5.90704e-47
3.84936e-47
2.49541e-47
1.60948e-47
1.03294e-47
6.59724e-48
4.19366e-48
2.65347e-48
1.67134e-48
1.04807e-48
6.54369e-49
4.0682e-49
2.51861e-49
1.55286e-49
9.53561e-50
5.83225e-50
3.55325e-50
2.15646e-50
1.3038e-50
7.85346e-51
4.71315e-51
2.81829e-51
1.67921e-51
9.96993e-52
5.89883e-52
3.47813e-52
2.04385e-52
1.19701e-52
6.98719e-53
4.06523e-53
2.35755e-53
1.36284e-53
7.85326e-54
4.51122e-54
2.58339e-54
1.47486e-54
8.39442e-55
4.76345e-55
2.69499e-55
1.52023e-55
8.55042e-56
4.79519e-56
2.68148e-56
1.49522e-56
8.31395e-57
4.6099e-57
2.54899e-57
1.40555e-57
7.72923e-58
4.23884e-58
2.31839e-58
1.26464e-58
6.88006e-59
3.73313e-59
2.02032e-59
1.09053e-59
5.8713e-60
3.15297e-60
1.68888e-60
9.02365e-61
4.80922e-61
2.55673e-61
1.35587e-61
7.17267e-62
3.78514e-62
1.99263e-62
1.04646e-62
5.48243e-63
2.86541e-63
1.49407e-63
7.77191e-64
4.03335e-64
2.08829e-64
1.07871e-64
5.5593e-65
2.85849e-65
1.46643e-65
7.50586e-66
3.83316e-66
1.95316e-66
9.92997e-67
5.03722e-67
2.5496e-67
1.28765e-67
6.4889e-68
3.26285e-68
1.63712e-68
8.19643e-69
4.09482e-69
2.04135e-69
1.01548e-69
5.04089e-70
2.49704e-70
1.23433e-70
6.08874e-71
2.99722e-71
1.47235e-71
7.21779e-72
3.53106e-72
1.72392e-72
8.39932e-73
4.08403e-73
1.98178e-73
9.59725e-74
4.63839e-74
2.23728e-74
1.07699e-74
5.17414e-75
2.4809e-75
1.18721e-75
5.67013e-76
2.70279e-76
1.28584e-76
6.10549e-77
2.89345e-77
1.3686e-77
6.46111e-78
3.04444e-78
1.4318e-78
6.72102e-79
3.14896e-79
1.4726e-79
6.87361e-80
3.2024e-80
1.48922e-80
6.91249e-81
3.20264e-81
1.48109e-81
6.83688e-82
3.15021e-82
1.44887e-82
6.65163e-83
3.04818e-83
1.39434e-83
6.36673e-84
2.90191e-84
1.32031e-84
5.9964e-85
2.71854e-85
1.2303e-85
5.55799e-86
2.50646e-86
1.12834e-86
5.07063e-87
2.2747e-87
1.01867e-87
4.55393e-88
2.03231e-88
9.05406e-89
4.02672e-89
1.78778e-89
7.92384e-90
3.50604e-90
1.54867e-90
6.82916e-91
3.00636e-91
1.32124e-91
5.79689e-92
2.5391e-92
1.1103e-92
4.84701e-93
2.11246e-93
9.19143e-94
3.99264e-94
1.73149e-94
7.49667e-95
3.24044e-95
1.39839e-95
6.02486e-96
2.59154e-96
1.11292e-96
4.77165e-97
2.04255e-97
8.72926e-98
3.72464e-98
1.58671e-98
6.74863e-99
2.86578e-99
1.21501e-99
5.14313e-100
2.17365e-100
9.17205e-101
3.8642e-101
1.62544e-101
6.82659e-102
2.86258e-102
1.19849e-102
5.01e-103
2.09106e-103
8.71412e-104
3.62586e-104
1.50636e-104
6.24858e-105
2.58802e-105
1.07026e-105
4.41926e-106
1.822e-106
7.50047e-107
3.08298e-107
1.26531e-107
5.18523e-108
2.12171e-108
8.66865e-109
3.53645e-109
1.44057e-109
5.85941e-110
2.37973e-110
9.65064e-111
3.90788e-111
1.5801e-111
6.37954e-112
2.5719e-112
1.03533e-112
4.16171e-113
1.67043e-113
6.69499e-114
2.67942e-114
1.07078e-114
4.27298e-115
1.70268e-115
6.77497e-116
2.69189e-116
1.06803e-116
4.23141e-117
1.67404e-117
6.61343e-118
2.60897e-118
1.02776e-118
4.04296e-119
1.58815e-119
6.22972e-120
2.44025e-120
9.54524e-121
3.72846e-121
1.45433e-121
5.66486e-122
2.20348e-122
8.55898e-123
3.31994e-123
1.28599e-123
4.9744e-124
1.92151e-124
7.41219e-125
2.8553e-125
1.0984e-125
4.21959e-126
1.61877e-126
6.20166e-127
2.37267e-127
9.06513e-128
3.45876e-128
1.31789e-128
5.01472e-129
1.90558e-129
7.23141e-130
2.74052e-130
1.03719e-130
3.92015e-131
1.47966e-131
5.57755e-132
2.09963e-132
7.89342e-133
2.96353e-133
1.11116e-133
4.16071e-134
1.55591e-134
5.81069e-135
2.1672e-135
8.07231e-136
3.0028e-136
1.11554e-136
4.13882e-137
1.53356e-137
5.67487e-138
2.09723e-138
7.74057e-139
2.85322e-139
1.05035e-139
3.86166e-140
1.41792e-140
5.1996e-141
1.90427e-141
6.96516e-142
2.54434e-142
9.28248e-143
3.38219e-143
1.23077e-143
4.47305e-144
1.62359e-144
5.88573e-145
2.13095e-145
7.7054e-146
2.78272e-146
1.00368e-146
3.61556e-147
1.3008e-147
4.67411e-148
1.67743e-148
6.01237e-149
2.15231e-149
7.69525e-150
2.74789e-150
9.80025e-151
3.49089e-151
1.24193e-151
4.41286e-152
1.56606e-152
5.55084e-153
1.96506e-153
6.94799e-154
2.45363e-154
8.65422e-155
3.0487e-155
1.07268e-155
3.76963e-156
1.32311e-156
4.63839e-157
1.62409e-157
5.67973e-158
1.98389e-158
6.92126e-159
2.41173e-159
8.39358e-160
2.91773e-160
1.01302e-160
3.51297e-161
1.21677e-161
4.20945e-162
1.45453e-162
5.01998e-163
1.73047e-163
5.95815e-164
2.049e-164
7.03816e-165
2.41469e-165
8.27469e-166
2.83224e-166
9.68267e-167
3.30636e-167
1.1277e-167
3.84177e-168
1.30725e-168
4.44301e-169
1.50831e-169
5.11441e-170
1.73219e-170
5.85991e-171
1.98008e-171
6.68297e-172
2.25296e-172
7.58642e-173
2.55163e-173
8.57233e-174
2.8766e-174
9.64186e-175
3.22808e-175
1.07952e-175
3.60593e-176
1.20312e-176
4.00963e-177
1.33477e-177
4.43825e-178
1.47409e-178
4.89039e-179
1.62058e-179
5.36422e-180
1.77358e-180
5.85741e-181
1.93228e-181
6.36716e-182
2.09572e-182
6.89021e-183
2.26279e-183
7.42286e-184
2.43227e-184
7.961e-185
2.60279e-185
8.50014e-186
2.77288e-186
9.0355e-187
2.94098e-187
9.56205e-188
3.10548e-188
1.00746e-188
3.26472e-189
1.05679e-189
3.41703e-190
1.10366e-190
3.56076e-191
1.14756e-191
3.69429e-192
1.18799e-192
3.8161e-193
1.22448e-193
3.92476e-194
1.25661e-194
4.01899e-195
1.28399e-195
4.09766e-196
1.30629e-196
4.15982e-197
1.32324e-197
4.20472e-198
1.33465e-198
4.23184e-199
1.34037e-199
4.24087e-200
1.34036e-200
4.23175e-201
1.33461e-201
4.20463e-202
1.32323e-202
4.1599e-203
1.30638e-203
4.09818e-204
1.28426e-204
4.02028e-205
1.25719e-205
3.9272e-206
1.22549e-206
3.82011e-207
1.18956e-207
3.70032e-208
1.14984e-208
3.56925e-209
1.10679e-209
3.42843e-210
1.06089e-210
3.27941e-211
1.01267e-211
3.12382e-212
9.62614e-213
2.96324e-213
9.11238e-214
2.79928e-214
8.59034e-215
2.63345e-215
8.06477e-216
2.46724e-216
7.54017e-217
2.302e-217
7.02073e-218
2.13901e-218
6.51027e-219
1.97943e-219
6.01223e-220
1.82426e-220
5.52963e-221
1.67441e-221
5.06506e-222
1.53062e-222
4.62068e-223
1.39349e-223
4.1982e-224
1.26352e-224
3.79893e-225
1.14104e-225
3.42377e-226
1.02629e-226
3.07323e-227
9.19358e-228
2.7475e-228
8.20268e-229
2.44646e-229
7.28928e-230
2.16969e-230
6.45173e-231
1.91656e-231
5.68766e-232
1.68622e-232
4.99415e-233
1.47767e-233
4.3678e-234
1.28978e-234
3.80489e-235
1.12134e-235
3.30143e-236
9.71045e-237
2.8533e-237
8.37585e-238
2.45631e-238
7.1963e-239
2.10625e-239
6.15864e-240
1.79901e-240
5.24998e-241
1.53059e-241
4.45793e-242
1.29714e-242
3.77064e-243
1.09502e-243
3.17691e-244
9.20804e-245
2.66629e-245
7.71309e-246
2.22909e-246
6.43588e-247
1.85638e-247
5.34945e-248
1.54004e-248
4.42931e-249
1.27269e-249
3.65335e-250
1.04772e-250
3.00178e-251
8.5921e-252
2.45699e-252
7.01928e-253
2.0034e-253
5.71252e-254
1.62732e-254
4.63134e-255
1.31682e-255
3.74054e-256
1.06152e-256
3.00963e-257
8.52483e-258
2.41239e-258
6.82022e-259
1.92637e-259
5.43589e-260
1.53247e-260
4.31625e-261
1.21454e-261
3.41436e-262
9.58957e-263
2.6908e-263
7.54324e-264
2.11265e-264
5.91142e-265
1.65253e-265
4.61534e-266
1.28781e-266
3.59002e-267
9.99857e-268
2.78211e-268
7.73409e-269
2.14803e-269
5.96033e-270
1.65234e-270
4.57641e-271
1.26634e-271
3.50086e-272
9.66938e-273
2.66823e-273
7.35612e-274
2.02616e-274
5.57573e-275
1.53296e-275
4.21078e-276
1.15557e-276
3.16835e-277
8.67907e-278
2.37529e-278
6.49478e-279
1.77426e-279
4.84255e-280
1.32049e-280
3.59753e-281
9.79214e-282
2.66292e-282
7.23511e-283
1.96399e-283
5.32648e-284
1.44328e-284
3.90722e-285
1.0568e-285
2.85581e-286
7.71034e-287
2.07983e-287
5.60521e-288
1.50927e-288
4.06025e-289
1.09131e-289
2.93061e-290
7.86283e-291
2.10771e-291
5.64491e-292
1.51048e-292
4.03819e-293
1.07863e-293
2.87854e-294
7.67514e-295
2.04463e-295
5.44201e-296
1.44717e-296
3.84499e-297
1.02067e-297
2.70705e-298
7.17333e-299
1.89917e-299
5.02371e-300
1.32771e-300
3.5059e-301
9.24944e-302
2.43809e-302
6.42103e-303
1.68958e-303
4.44194e-304
1.16677e-304
3.06212e-305
8.02932e-306
2.10357e-306
5.50626e-307
1.44005e-307
3.76291e-308
9.82405e-309
2.5626e-309
6.67876e-310
1.73914e-310
4.52476e-311
1.1762e-311
3.05488e-312
7.92741e-313
2.05539e-313
5.32455e-314
1.37815e-314
3.56401e-315
9.20888e-316
2.3774e-316
6.13232e-317
1.58043e-317