# vtk DataFile Version 2.0
FlowField
ASCII
DATASET STRUCTURED_GRID
DIMENSIONS 1602 1 52
POINTS 83304 float
0 0 0
0.1 0 0
0.2 0 0
0.3 0 0
0.4 0 0
0.5 0 0
0.6 0 0
0.7 0 0
0.8 0 0
0.9 0 0
1 0 0
1.1 0 0
1.2 0 0
1.3 0 0
1.4 0 0
1.5 0 0
1.6 0 0
1.7 0 0
1.8 0 0
1.9 0 0
2 0 0
2.1 0 0
2.2 0 0
2.3 0 0
2.4 0 0
2.5 0 0
2.6 0 0
2.7 0 0
2.8 0 0
2.9 0 0
3 0 0
3.1 0 0
3.2 0 0
3.3 0 0
3.4 0 0
3.5 0 0
3.6 0 0
3.7 0 0
3.8 0 0
3.9 0 0
4 0 0
4.1 0 0
4.2 0 0
4.3 0 0
4.4 0 0
4.5 0 0
4.6 0 0
4.7 0 0
4.8 0 0
4.9 0 0
5 0 0
5.1 0 0
5.2 0 0
5.3 0 0
5.4 0 0
5.5 0 0
5.6 0 0
5.7 0 0
5.8 0 0
5.9 0 0
6 0 0
6.1 0 0
6.2 0 0
6.3 0 0
6.4 0 0
6.5 0 0
6.6 0 0
6.7 0 0
6.8 0 0
6.9 0 0
7 0 0
7.1 0 0
7.2 0 0
7.3 0 0
7.4 0 0
7.5 0 0
7.6 0 0
7.7 0 0
7.8 0 0
7.9 0 0
8 0 0
8.1 0 0
8.2 0 0
8.3 0 0
8.4 0 0
8.5 0 0
8.6 0 0
8.7 0 0
8.8 0 0
8.9 0 0
9 0 0
9.1 0 0
9.2 0 0
9.3 0 0
9.4 0 0
9.5 0 0
9.6 0 0
9.7 0 0
9.8 0 0
9.9 0 0
10 0 0
10.1 0 0
10.2 0 0
10.3 0 0
10.4 0 0
10.5 0 0
10.6 0 0
10.7 0 0
10.8 0 0
10.9 0 0
11 0 0
11.1 0 0
11.2 0 0
11.3 0 0
11.4 0 0
11.5 0 0
11.6 0 0
11.7 0 0
11.8 0 0
11.9 0 0
12 0 0
12.1 0 0
12.2 0 0
12.3 0 0
12.4 0 0
12.5 0 0
12.6 0 0
12.7 0 0
12.8 0 0
12.9 0 0
13 0 0
13.1 0 0
13.2 0 0
13.3 0 0
13.4 0 0
13.5 0 0
13.6 0 0
13.7 0 0
13.8 0 0
13.9 0 0
14 0 0
14.1 0 0
14.2 0 0
14.3 0 0
14.4 0 0
14.5 0 0
14.6 0 0
14.7 0 0
14.8 0 0
14.9 0 0
15 0 0
15.1 0 0
15.2 0 0
15.3 0 0
15.4 0 0
15.5 0 0
15.6 0 0
15.7 0 0
15.8 0 0
15.9 0 0
16 0 0
16.1 0 0
16.2 0 0
16.3 0 0
16.4 0 0
16.5 0 0
16.6 0 0
16.7 0 0
16.8 0 0
16.9 0 0
17 0 0
17.1 0 0
17.2 0 0
17.3 0 0
17.4 0 0
17.5 0 0
17.6 0 0
17.7 0 0
17.8 0 0
17.9 0 0
18 0 0
18.1 0 0
18.2 0 0
18.3 0 0
18.4 0 0
18.5 0 0
18.6 0 0
18.7 0 0
18.8 0 0
18.9 0 0
19 0 0
19.1 0 0
19.2 0 0
19.3 0 0
19.4 0 0
19.5 0 0
19.6 0 0
19.7 0 0
19.8 0 0
19.9 0 0
20 0 0
20.1 0 0
20.2 0 0
20.3 0 0
20.4 0 0
20.5 0 0
20.6 0 0
20.7 0 0
20.8 0 0
20.9 0 0
21 0 0
21.1 0 0
21.2 0 0
21.3 0 0
21.4 0 0
21.5 0 0
21.6 0 0
21.7 0 0
21.8 0 0
21.9 0 0
22 0 0
22.1 0 0
22.2 0 0
22.3 0 0
22.4 0 0
22.5 0 0
22.6 0 0
22.7 0 0
22.8 0 0
22.9 0 0
23 0 0
23.1 0 0
23.2 0 0
23.3 0 0
23.4 0 0
23.5 0 0
23.6 0 0
23.7 0 0
23.8 0 0
23.9 0 0
24 0 0
24.1 0 0
24.2 0 0
24.3 0 0
24.4 0 0
24.5 0 0
24.6 0 0
24.7 0 0
24.8 0 0
24.9 0 0
25 0 0
25.1 0 0
25.2 0 0
25.3 0 0
25.4 0 0
25.5 0 0
25.6 0 0
25.7 0 0
25.8 0 0
25.9 0 0
26 0 0
26.1 0 0
26.2 0 0
26.3 0 0
26.4 0 0
26.5 0 0
26.6 0 0
26.7 0 0
26.8 0 0
26.9 0 0
27 0 0
27.1 0 0
27.2 0 0
27.3 0 0
27.4 0 0
27.5 0 0
27.6 0 0
27.7 0 0
27.8 0 0
27.9 0 0
28 0 0
28.1 0 0
28.2 0 0
28.3 0 0
28.4 0 0
28.5 0 0
28.6 0 0
28.7 0 0
28.8 0 0
28.9 0 0
29 0 0
29.1 0 0
29.2 0 0
29.3 0 0
29.4 0 0
29.5 0 0
29.6 0 0
29.7 0 0
29.8 0 0
29.9 0 0
30 0 0
30.1 0 0
30.2 0 0
30.3 0 0
30.4 0 0
30.5 0 0
30.6 0 0
30.7 0 0
30.8 0 0
30.9 0 0
31 0 0
31.1 0 0
31.2 0 0
31.3 0 0
31.4 0 0
31.5 0 0
31.6 0 0
31.7 0 0
31.8 0 0
31.9 0 0
32 0 0
32.1 0 0
32.2 0 0
32.3 0 0
32.4 0 0
32.5 0 0
32.6 0 0
32.7 0 0
32.8 0 0
32.9 0 0
33 0 0
33.1 0 0
33.2 0 0
33.3 0 0
33.4 0 0
33.5 0 0
33.6 0 0
33.7 0 0
33.8 0 0
33.9 0 0
34 0 0
34.1 0 0
34.2 0 0
34.3 0 0
34.4 0 0
34.5 0 0
34.6 0 0
34.7 0 0
34.8 0 0
34.9 0 0
35 0 0
35.1 0 0
35.2 0 0
35.3 0 0
35.4 0 0
35.5 0 0
35.6 0 0
35.7 0 0
35.8 0 0
35.9 0 0
36 0 0
36.1 0 0
36.2 0 0
36.3 0 0
36.4 0 0
36.5 0 0
36.6 0 0
36.7 0 0
36.8 0 0
36.9 0 0
37 0 0
37.1 0 0
37.2 0 0
37.3 0 0
37.4 0 0
37.5 0 0
37.6 0 0
37.7 0 0
37.8 0 0
37.9 0 0
38 0 0
38.1 0 0
38.2 0 0
38.3 0 0
38.4 0 0
38.5 0 0
38.6 0 0
38.7 0 0
38.8 0 0
38.9 0 0
39 0 0
39.1 0 0
39.2 0 0
39.3 0 0
39.4 0 0
39.5 0 0
39.6 0 0
39.7 0 0
39.8 0 0
39.9 0 0
40 0 0
40.1 0 0
40.2 0 0
40.3 0 0
40.4 0 0
40.5 0 0
40.6 0 0
40.7 0 0
40.8 0 0
40.9 0 0
41 0 0
41.1 0 0
41.2 0 0
41.3 0 0
41.4 0 0
41.5 0 0
41.6 0 0
41.7 0 0
41.8 0 0
41.9 0 0
42 0 0
42.1 0 0
42.2 0 0
42.3 0 0
42.4 0 0
42.5 0 0
42.6 0 0
42.7 0 0
42.8 0 0
42.9 0 0
43 0 0
43.1 0 0
43.2 0 0
43.3 0 0
43.4 0 0
43.5 0 0
43.6 0 0
43.7 0 0
43.8 0 0
43.9 0 0
44 0 0
44.1 0 0
44.2 0 0
44.3 0 0
44.4 0 0
44.5 0 0
44.6 0 0
44.7 0 0
44.8 0 0
44.9 0 0
45 0 0
45.1 0 0
45.2 0 0
45.3 0 0
45.4 0 0
45.5 0 0
45.6 0 0
45.7 0 0
45.8 0 0
45.9 0 0
46 0 0
46.1 0 0
46.2 0 0
46.3 0 0
46.4 0 0
46.5 0 0
46.6 0 0
46.7 0 0
46.8 0 0
46.9 0 0
47 0 0
47.1 0 0
47.2 0 0
47.3 0 0
47.4 0 0
47.5 0 0
47.6 0 0
47.7 0 0
47.8 0 0
47.9 0 0
48 0 0
48.1 0 0
48.2 0 0
48.3 0 0
48.4 0 0
48.5 0 0
48.6 0 0
48.7 0 0
48.8 0 0
48.9 0 0
49 0 0
49.1 0 0
49.2 0 0
49.3 0 0
49.4 0 0
49.5 0 0
49.6 0 0
49.7 0 0
49.8 0 0
49.9 0 0
50 0 0
50.1 0 0
50.2 0 0
50.3 0 0
50.4 0 0
50.5 0 0
50.6 0 0
50.7 0 0
50.8 0 0
50.9 0 0
51 0 0
51.1 0 0
51.2 0 0
51.3 0 0
51.4 0 0
51.5 0 0
51.6 0 0
51.7 0 0
51.8 0 0
51.9 0 0
52 0 0
52.1 0 0
52.2 0 0
52.3 0 0
52.4 0 0
52.5 0 0
52.6 0 0
52.7 0 0
52.8 0 0
52.9 0 0
53 0 0
53.1 0 0
53.2 0 0
53.3 0 0
53.4 0 0
53.5 0 0
53.6 0 0
53.7 0 0
53.8 0 0
53.9 0 0
54 0 0
54.1 0 0
54.2 0 0
54.3 0 0
54.4 0 0
54.5 0 0
54.6 0 0
54.7 0 0
54.8 0 0
54.9 0 0
55 0 0
55.1 0 0
55.2 0 0
55.3 0 0
55.4 0 0
55.5 0 0
55.6 0 0
55.7 0 0
55.8 0 0
55.9 0 0
56 0 0
56.1 0 0
56.2 0 0
56.3 0 0
56.4 0 0
56.5 0 0
56.6 0 0
56.7 0 0
56.8 0 0
56.9 0 0
57 0 0
57.1 0 0
57.2 0 0
57.3 0 0
57.4 0 0
57.5 0 0
57.6 0 0
57.7 0 0
57.8 0 0
57.9 0 0
58 0 0
58.1 0 0
58.2 0 0
58.3 0 0
58.4 0 0
58.5 0 0
58.6 0 0
58.7 0 0
58.8 0 0
58.9 0 0
59 0 0
59.1 0 0
59.2 0 0
59.3 0 0
59.4 0 0
59.5 0 0
59.6 0 0
59.7 0 0
59.8 0 0
59.9 0 0
60 0 0
60.1 0 0
60.2 0 0
60.3 0 0
60.4 0 0
60.5 0 0
60.6 0 0
60.7 0 0
60.8 0 0
60.9 0 0
61 0 0
61.1 0 0
61.2 0 0
61.3 0 0
61.4 0 0
61.5 0 0
61.6 0 0
61.7 0 0
61.8 0 0
61.9 0 0
62 0 0
62.1 0 0
62.2 0 0
62.3 0 0
62.4 0 0
62.5 0 0
62.6 0 0
62.7 0 0
62.8 0 0
62.9 0 0
63 0 0
63.1 0 0
63.2 0 0
63.3 0 0
63.4 0 0
63.5 0 0
63.6 0 0
63.7 0 0
63.8 0 0
63.9 0 0
64 0 0
64.1 0 0
64.2 0 0
64.3 0 0
64.4 0 0
64.5 0 0
64.6 0 0
64.7 0 0
64.8 0 0
64.9 0 0
65 0 0
65.1 0 0
65.2 0 0
65.3 0 0
65.4 0 0
65.5 0 0
65.6 0 0
65.7 0 0
65.8 0 0
65.9 0 0
66 0 0
66.1 0 0
66.2 0 0
66.3 0 0
66.4 0 0
66.5 0 0
66.6 0 0
66.7 0 0
66.8 0 0
66.9 0 0
67 0 0
67.1 0 0
67.2 0 0
67.3 0 0
67.4 0 0
67.5 0 0
67.6 0 0
67.7 0 0
67.8 0 0
67.9 0 0
68 0 0
68.1 0 0
68.2 0 0
68.3 0 0
68.4 0 0
68.5 0 0
68.6 0 0
68.7 0 0
68.8 0 0
68.9 0 0
69 0 0
69.1 0 0
69.2 0 0
69.3 0 0
69.4 0 0
69.5 0 0
69.6 0 0
69.7 0 0
69.8 0 0
69.9 0 0
70 0 0
70.1 0 0
70.2 0 0
70.3 0 0
70.4 0 0
70.5 0 0
70.6 0 0
70.7 0 0
70.8 0 0
70.9 0 0
71 0 0
71.1 0 0
71.2 0 0
71.3 0 0
71.4 0 0
71.5 0 0
71.6 0 0
71.7 0 0
71.8 0 0
71.9 0 0
72 0 0
72.1 0 0
72.2 0 0
72.3 0 0
72.4 0 0
72.5 0 0
72.6 0 0
72.7 0 0
72.8 0 0
72.9 0 0
73 0 0
73.1 0 0
73.2 0 0
73.3 0 0
73.4 0 0
73.5 0 0
73.6 0 0
73.7 0 0
73.8 0 0
73.9 0 0
74 0 0
74.1 0 0
74.2 0 0
74.3 0 0
74.4 0 0
74.5 0 0
74.6 0 0
74.7 0 0
74.8 0 0
74.9 0 0
75 0 0
75.1 0 0
75.2 0 0
75.3 0 0
75.4 0 0
75.5 0 0
75.6 0 0
75.7 0 0
75.8 0 0
75.9 0 0
76 0 0
76.1 0 0
76.2 0 0
76.3 0 0
76.4 0 0
76.5 0 0
76.6 0 0
76.7 0 0
76.8 0 0
76.9 0 0
77 0 0
77.1 0 0
77.2 0 0
77.3 0 0
77.4 0 0
77.5 0 0
77.6 0 0
77.7 0 0
77.8 0 0
77.9 0 0
78 0 0
78.1 0 0
78.2 0 0
78.3 0 0
78.4 0 0
78.5 0 0
78.6 0 0
78.7 0 0
78.8 0 0
78.9 0 0
79 0 0
79.1 0 0
79.2 0 0
79.3 0 0
79.4 0 0
79.5 0 0
79.6 0 0
79.7 0 0
79.8 0 0
79.9 0 0
80 0 0
80.1 0 0
80.2 0 0
80.3 0 0
80.4 0 0
80.5 0 0
80.6 0 0
80.7 0 0
80.8 0 0
80.9 0 0
81 0 0
81.1 0 0
81.2 0 0
81.3 0 0
81.4 0 0
81.5 0 0
81.6 0 0
81.7 0 0
81.8 0 0
81.9 0 0
82 0 0
82.1 0 0
82.2 0 0
82.3 0 0
82.4 0 0
82.5 0 0
82.6 0 0
82.7 0 0
82.8 0 0
82.9 0 0
83 0 0
83.1 0 0
83.2 0 0
83.3 0 0
83.4 0 0
83.5 0 0
83.6 0 0
83.7 0 0
83.8 0 0
83.9 0 0
84 0 0
84.1 0 0
84.2 0 0
84.3 0 0
84.4 0 0
84.5 0 0
84.6 0 0
84.7 0 0
84.8 0 0
84.9 0 0
85 0 0
85.1 0 0
85.2 0 0
85.3 0 0
85.4 0 0
85.5 0 0
85.6 0 0
85.7 0 0
85.8 0 0
85.9 0 0
86 0 0
86.1 0 0
86.2 0 0
86.3 0 0
86.4 0 0
86.5 0 0
86.6 0 0
86.7 0 0
86.8 0 0
86.9 0 0
87 0 0
87.1 0 0
87.2 0 0
87.3 0 0
87.4 0 0
87.5 0 0
87.6 0 0
87.7 0 0
87.8 0 0
87.9 0 0
88 0 0
88.1 0 0
88.2 0 0
88.3 0 0
88.4 0 0
88.5 0 0
88.6 0 0
88.7 0 0
88.8 0 0
88.9 0 0
89 0 0
89.1 0 0
89.2 0 0
89.3 0 0
89.4 0 0
89.5 0 0
89.6 0 0
89.7 0 0
89.8 0 0
89.9 0 0
90 0 0
90.1 0 0
90.2 0 0
90.3 0 0
90.4 0 0
90.5 0 0
90.6 0 0
90.7 0 0
90.8 0 0
90.9 0 0
91 0 0
91.1 0 0
91.2 0 0
91.3 0 0
91.4 0 0
91.5 0 0
91.6 0 0
91.7 0 0
91.8 0 0
91.9 0 0
92 0 0
92.1 0 0
92.2 0 0
92.3 0 0
92.4 0 0
92.5 0 0
92.6 0 0
92.7 0 0
92.8 0 0
92.9 0 0
93 0 0
93.1 0 0
93.2 0 0
93.3 0 0
93.4 0 0
93.5 0 0
93.6 0 0
93.7 0 0
93.8 0 0
93.9 0 0
94 0 0
94.1 0 0
94.2 0 0
94.3 0 0
94.4 0 0
94.5 0 0
94.6 0 0
94.7 0 0
94.8 0 0
94.9 0 0
95 0 0
95.1 0 0
95.2 0 0
95.3 0 0
95.4 0 0
95.5 0 0
95.6 0 0
95.7 0 0
95.8 0 0
95.9 0 0
96 0 0
96.1 0 0
96.2 0 0
96.3 0 0
96.4 0 0
96.5 0 0
96.6 0 0
96.7 0 0
96.8 0 0
96.9 0 0
97 0 0
97.1 0 0
97.2 0 0
97.3 0 0
97.4 0 0
97.5 0 0
97.6 0 0
97.7 0 0
97.8 0 0
97.9 0 0
98 0 0
98.1 0 0
98.2 0 0
98.3 0 0
98.4 0 0
98.5 0 0
98.6 0 0
98.7 0 0
98.8 0 0
98.9 0 0
99 0 0
99.1 0 0
99.2 0 0
99.3 0 0
99.4 0 0
99.5 0 0
99.6 0 0
99.7 0 0
99.8 0 0
99.9 0 0
100 0 0
100.1 0 0
100.2 0 0
100.3 0 0
100.4 0 0
100.5 0 0
100.6 0 0
100.7 0 0
100.8 0 0
100.9 0 0
101 0 0
101.1 0 0
101.2 0 0
101.3 0 0
101.4 0 0
101.5 0 0
101.6 0 0
101.7 0 0
101.8 0 0
101.9 0 0
102 0 0
102.1 0 0
102.2 0 0
102.3 0 0
102.4 0 0
102.5 0 0
102.6 0 0
102.7 0 0
102.8 0 0
102.9 0 0
103 0 0
103.1 0 0
103.2 0 0
103.3 0 0
103.4 0 0
103.5 0 0
103.6 0 0
103.7 0 0
103.8 0 0
103.9 0 0
104 0 0
104.1 0 0
104.2 0 0
104.3 0 0
104.4 0 0
104.5 0 0
104.6 0 0
104.7 0 0
104.8 0 0
104.9 0 0
105 0 0
105.1 0 0
105.2 0 0
105.3 0 0
105.4 0 0
105.5 0 0
105.6 0 0
105.7 0 0
105.8 0 0
105.9 0 0
106 0 0
106.1 0 0
106.2 0 0
106.3 0 0
106.4 0 0
106.5 0 0
106.6 0 0
106.7 0 0
106.8 0 0
106.9 0 0
107 0 0
107.1 0 0
107.2 0 0
107.3 0 0
107.4 0 0
107.5 0 0
107.6 0 0
107.7 0 0
107.8 0 0
107.9 0 0
108 0 0
108.1 0 0
108.2 0 0
108.3 0 0
108.4 0 0
108.5 0 0
108.6 0 0
108.7 0 0
108.8 0 0
108.9 0 0
109 0 0
109.1 0 0
109.2 0 0
109.3 0 0
109.4 0 0
109.5 0 0
109.6 0 0
109.7 0 0
109.8 0 0
109.9 0 0
110 0 0
110.1 0 0
110.2 0 0
110.3 0 0
110.4 0 0
110.5 0 0
110.6 0 0
110.7 0 0
110.8 0 0
110.9 0 0
111 0 0
111.1 0 0
111.2 0 0
111.3 0 0
111.4 0 0
111.5 0 0
111.6 0 0
111.7 0 0
111.8 0 0
111.9 0 0
112 0 0
[...]
POINT_DATA 83304

SCALARS pressure float 1
LOOKUP_TABLE default
0
0
0
0
0
0
0
0
0
0
0
0
0
0
0
0
0
0
0
0
0
0
0
0
0
0
0
0
0
0
0
0
0
0
0
0
0
0
0
0
0
0
0
0
0
0
0
0
0
0
0
0
0
0
0
0
0
0
0
0
0
0
0
0
0
0
0
0
0
0
0
0
0
0
0
0
0
0
0
0
0
0
0
0
0
0
0
0
0
0
0
0
0
0
0
0
0
0
0
0
0
0
0
0
0
0
0
0
0
0
0
0
0
0
0
0
0
0
0
0
0
0
0
0
0
0
0
0
0
0
0
0
0
0
0
0
0
0
0
0
0
0
0
0
0
0
0
0
0
0
0
0
0
0
0
0
0
0
0
0
0
0
0
0
0
0
0
0
0
0
0
0
0
0
0
0
0
0
0
0
0
0
0
0
0
0
0
0
0
0
0
0
0
0
0
0
0
0
0
0
0
0
0
0
0
0
0
0
0
0
0
0
0
0
0
0
0
0
0
0
0
0
0
0
0
0
0
0
0
0
0
0
0
0
0
0
0
0
0
0
0
0
0
0
0
0
0
0
0
0
0
0
0
0
0
0
0
0
0
0
0
0
0
0
0
0
0
0
0
0
0
0
0
0
0
0
0
0
0
0
0
0
0
0
0
0
0
0
0
0
0
0
0
0
0
0
0
0
0
0
0
0
0
0
0
0
0
0
0
0
0
0
0
0
0
0
0
0
0
0
0
0
0
0
0
0
0
0
0
0
0
0
0
0
0
0
0
0
0
0
0
0
0
0
0
0
0
0
0
0
0
0
0
0
0
0
0
0
0
0
0
0
0
0
0
0
0
0
0
0
0
0
0
0
0
0
0
0
0
0
0
0
0
0
0
0
0
0
0
0
0
0
0
0
0
0
0
0
0
0
0
0
0
0
0
0
0
0
0
0
0
0
0
0
0
0
0
0
0
0
0
0
0
0
0
0
0
0
0
0
0
0
0
0
0
0
0
0
0
0
0
0
0
0
0
0
0
0
0
0
0
0
0
0
0
0
0
0
0
0
0
0
0
0
0
0
0
0
0
0
0
0
0
0
0
0
0
0
0
0
0
0
0
0
0
0
0
0
0
0
0
0
0
0
0
0
0
0
0
0
0
0
0
0
0
0
0
0
0
0
0
0
0
0
0
0
0
0
0
0
0
0
0
0
0
0
0
0
0
0
0
0
0
0
0
0
0
0
0
0
0
0
0
0
0
0
0
0
0
0
0
0
0
0
0
0
0
0
0
0
0
0
0
0
0
0
0
0
0
0
0
0
0
0
0
0
0
0
0
0
0
0
0
0
0
0
0
0
0
0
0
0
0
0
0
0
0
0
0
0
0
0
0
0
0
0
0
0
0
0
0
0
0
0
0
0
0
0
0
0
0
0
0
0
0
0
0
0
0
0
0
0
0
0
0
0
0
0
0
0
0
0
0
0
0
0
0
0
0
0
0
0
0
0
0
0
0
0
0
0
0
0
0
0
0
0
0
0
0
0
0
0
0
0
0
0
0
0
0
0
0
0
0
0
0
0
0
0
0
0
0
0
0
0
0
0
0
0
0
0
0
0
0
0
0
0
0
0
0
0
0
0
0
0
0
0
0
0
0
0
0
0
0
0
0
0
0
0
0
0
0
0
0
0
0
0
0
0
0
0
0
0
0
0
0
0
0
0
0
0
0
0
0
0
0
0
0
0
0
0
0
0
0
0
0
0
0
0
0
0
0
0
0
0
0
0
0
0
0
0
0
0
0
0
0
0
0
0
0
0
0
0
0
0
0
0
0
0
0
0
0
0
0
0
0
0
0
0
0
0
0
0
0
0
0
0
0
0
0
0
0
0
0
0
0
0
0
0
0
0
0
0
0
0
0
0
0
0
0
0
0
0
0
0
0
0
0
0
0
0
0
0
0
0
0
0
0
0
0
0
0
0
0
0
0
0
0
0
0
0
0
0
0
0
0
0
0
0
0
0
0
0
0
0
0
0
0
0
0
0
0
0
0
0
0
0
0
0
0
0
0
0
0
0
0
0
0
0
0
0
0
0
0
0
0
0
0
0
0
0
0
0
0
0
0
0
0
0
0
0
0
0
0
0
0
0
0
0
0
0
0
0
0
0
0
0
0
0
0
0
0
0
0
0
0
0
0
0
0
0
0
0
0
0
0
0
0
0
0
0
0
0
0
0
0
0
0
0
0
0
0
0
0
0
0
0
0
0
0
0
0
0
0
0
0
0
0
0
0
0
0
0
0
0
0
0
0
0
0
0
0
0
0
0
0
0
0
0
0
0
0
0
0
0
0
0
0
0
0
0
0
0
0
0
0
0
0
0
0
0
0
0
0
0
0
0
0
0
0
0
0
0
0
0
0
0
0
0
0
0
0
0
0
0
0
0
0
0
0
0
0
0
0
0
0
0
0
0
0
0
0
0
0
0
0
0
0
0
0
0
0
0
0
0
0
0
0
0
0
0
0
0
0
0
0
0
0
0
0
0
0
0
0
0
0
0
0
0
0
0
0
0
0
0
0
0
0
0
0
0
0
0
0
0
0
0
0
0
0
0
0
0
0
0
0
0
0
0
0
0
0
0
0
0
0
0
0
0
0
0
0
0
0
0
0
0
0
0
0
0
0
0
0
0
0
0
0
0
0
0
0
0
0
0
0
0
0
0
0
0
0
0
0
0
0
0
0
0
0
0
0
0
0
0
0
0
0
0
0
0
0
0
0
0
0
0
0
0
0
0
0
0
0
0
0
0
0
0
0
0
0
0
0
0
0
0
0
0
0
0
0
0
0
0
0
0
0
0
0
0
0
0
0
0
0
0
0
0
0
0
0
0
0
0
0
0
0
0
0
0
0
0
0
0
0
0
0
0
0
0
0
0
0
0
0
0
0
0
0
0
0
0
0
0
0
0
0
0
0
0
0
0
0
0
0
0
0
0
0
0
0
0
0
0
0
0
0
0
0
0
0
0
0
0
0
0
0
0
0
0
0
0
0
0
0
0
0
0
0
0
0
0
0
0
0
0
0
0
0
0
0
0
0
0
0
0
0
0
0
0
0
0
0
0
0
0
0
0
0
0
0
0
0
0
0
0
0
0
0
0
0
0
0
0
0
0
0
0
0
0
0
0
0
0
0
0
0
0
0
0
0
0
0
0
0
0
0
0
0
0
0
0
0
0
0
0
0
0
0
0
0
0
0
0
0
0
0
0
0
0
0
0
0
0
0
0
0
0
0
0
0
0
0
0
0
0
0
0
0
0
0
0
0
0
0
0
0
0
0
0
0
0
0
0
0
0
0
0
0
0
0
0
0
0
0
0
0
0
0
0
0
0
0
0
0
0
0
0
0
0
0
0
0
0
0
0
0
0
0
0
0
0
0
0
0
0
0
0
0
0
0
0
0
0
0
0
0
0
0
0
0
0
0
0
0
0
0
0
0
0
0
0
0
0
0
0
0
0
0
0
0
0
0
0
0
0
0
0
0
0
0
0
0
0
0
0
0
0
0
0
0
0
0
0
0
0
0
0
0
0
0
0
0
0
0
0
0
0
0
0
0
0
0
0
0
0
0
0
0
0
0
0
0
0
0
0
0
0
0
0
0
0
0
0.0776415
0.052903
0.0436505
0.0357426
0.03048
0.0271088
0.0248019
0.023116
0.0218008
0.0207277
0.0198234
0.0190436
0.0183596
0.0177519
0.0172067
0.0167134
0.0162644
0.0158532
0.0154749
0.0151254
0.0148012
0.0144993
0.0142174
0.0139533
0.0137052
0.0134714
0.0132506
0.0130416
0.0128434
0.0126549
0.0124753
0.0123039
0.0121401
0.0119833
0.0118329
0.0116884
0.0115494
0.0114156
0.0112866
0.0111621
0.0110418
0.0109255
0.0108128
0.0107036
0.0105978
0.0104952
0.0103955
0.0102987
0.0102045
0.0101129
0.0100237
0.00993695
0.00985247
0.00977017
0.00968993
0.00961167
0.00953535
0.00946089
0.00938824
0.00931736
0.00924818
0.00918067
0.00911478
0.00905044
0.00898764
0.00892632
0.00886645
0.008808
0.00875093
0.00869521
0.0086408
0.00858769
0.00853585
0.00848523
0.00843583
0.00838763
0.0083406
0.00829471
0.00824995
0.00820629
0.0081637
0.00812218
0.00808168
0.0080422
0.00800371
0.00796619
0.00792963
0.007894
0.0078593
0.0078255
0.00779258
0.00776051
0.00772929
0.00769889
0.00766929
0.00764049
0.00761246
0.00758518
0.00755863
0.00753279
0.00750766
0.00748321
0.00745944
0.00743632
0.00741385
0.00739202
0.0073708
0.0073502
0.00733019
0.00731078
0.00729196
0.0072737
0.00725598
0.00723878
0.00722205
0.00720579
0.00718996
0.00717455
0.00715951
0.00714481
0.00713044
0.00711639
0.00710268
0.0070893
0.00707631
0.00706373
0.00705163
0.00704008
0.0070291
0.00701873
0.00700896
0.00699975
0.006991
0.00698256
0.0069742
0.00696567
0.00695673
0.00694712
0.00693669
0.00692538
0.00691338
0.00690114
0.00688945
0.00687945
0.00687266
0.00687091
0.00687621
0.00689057
0.00691572
0.00695274
0.00700163
0.00706087
0.00712693
0.00719381
0.00725276
0.00729212
0.00729738
0.00725161
0.00713628
0.00693259
0.00662328
0.00619514
0.00564196
0.00496808
0.00419225
0.00335121
0.00250263
0.0017262
0.00112225
0.000806766
0.000902949
0.00152995
0.00279041
0.00475889
0.00747253
0.0109282
0.0150825
0.0198533
0.025129
0.0307797
0.0366593
0.0426049
0.0484566
0.0540704
0.0592988
0.0639706
0.0679248
0.0710755
0.0734266
0.0750195
0.0758776
0.0759996
0.0753877
0.0740732
0.0721194
0.0696119
0.0666458
0.0633187
0.059726
0.0559586
0.0521002
0.0482261
0.0444011
0.0406789
0.037102
0.0337023
0.0305016
0.0275134
0.0247439
0.0221935
0.0198581
0.0177301
0.0157994
0.0140545
0.0124829
0.0110714
0.00980728
0.00867764
0.0076703
0.00677368
0.0059769
0.00526988
0.00464332
0.00408871
0.0035983
0.00316506
0.00278265
0.00244537
0.00214809
0.00188623
0.0016557
0.00145287
0.00127448
0.00111767
0.000979876
0.000858842
0.000752567
0.000659282
0.000577424
0.000505616
0.00044264
0.000387426
0.00033903
0.000296619
0.000259462
0.000226916
0.000198415
0.000173461
0.000151618
0.000132502
0.000115775
0.000101142
8.8343e-05
7.71504e-05
6.73644e-05
5.88097e-05
5.13328e-05
4.4799e-05
3.90905e-05
3.41037e-05
2.97483e-05
2.59448e-05
2.26241e-05
1.97252e-05
1.7195e-05
1.4987e-05
1.30604e-05
1.13798e-05
9.91383e-06
8.63539e-06
7.52064e-06
6.54879e-06
5.70165e-06
4.96334e-06
4.31998e-06
3.75944e-06
3.27114e-06
2.84583e-06
2.47546e-06
2.15296e-06
1.8722e-06
1.62782e-06
1.41512e-06
1.23004e-06
1.069e-06
9.28917e-07
8.0707e-07
7.01105e-07
6.08965e-07
5.28858e-07
4.59224e-07
3.98701e-07
3.46105e-07
3.00406e-07
2.60703e-07
2.26216e-07
1.96264e-07
1.70254e-07
1.4767e-07
1.28064e-07
1.11046e-07
9.62758e-08
8.3459e-08
7.23384e-08
6.26911e-08
5.4323e-08
4.70655e-08
4.0772e-08
3.53154e-08
3.05849e-08
2.64845e-08
2.29308e-08
1.98512e-08
1.7183e-08
1.48714e-08
1.28691e-08
1.11349e-08
9.63315e-09
8.33283e-09
7.20709e-09
6.23262e-09
5.38921e-09
4.65932e-09
4.02776e-09
3.48135e-09
3.00869e-09
2.59986e-09
2.24629e-09
1.94056e-09
1.67622e-09
1.4477e-09
1.25018e-09
1.07947e-09
9.31951e-10
8.04489e-10
6.9437e-10
5.99249e-10
5.17092e-10
4.46142e-10
3.84878e-10
3.31985e-10
2.86324e-10
2.46912e-10
2.12898e-10
1.83547e-10
1.58222e-10
1.36373e-10
1.17527e-10
1.01273e-10
8.72552e-11
7.51683e-11
6.47475e-11
5.57643e-11
4.80213e-11
4.13482e-11
3.55978e-11
3.06432e-11
2.63749e-11
2.26982e-11
1.95315e-11
1.68044e-11
1.44563e-11
1.24347e-11
1.06944e-11
9.19643e-12
7.90729e-12
6.79798e-12
5.84353e-12
5.02243e-12
4.31614e-12
3.70869e-12
3.18631e-12
2.73715e-12
2.35099e-12
2.01905e-12
1.73374e-12
1.48856e-12
1.27787e-12
1.09686e-12
9.41361e-13
8.07798e-13
6.93091e-13
5.94591e-13
5.10019e-13
4.37415e-13
3.75094e-13
3.21607e-13
2.75708e-13
2.36326e-13
2.0254e-13
1.7356e-13
1.48705e-13
1.27392e-13
1.09119e-13
9.34552e-14
8.00309e-14
6.85284e-14
5.86746e-14
5.02345e-14
4.30058e-14
3.68138e-14
3.1508e-14
2.6959e-14
2.30562e-14
1.97056e-14
1.68281e-14
1.43569e-14
1.22362e-14
1.04187e-14
8.86506e-15
7.54231e-15
6.42382e-15
5.48831e-15
4.71831e-15
4.0973e-15
3.60593e-15
3.21819e-15
2.89915e-15
2.60608e-15
2.29406e-15
1.92574e-15
1.48323e-15
9.78388e-16
4.57266e-16
-5.00394e-18
-3.19843e-16
-4.09235e-16
-2.32361e-16
1.93034e-16
7.82465e-16
1.39487e-15
1.86138e-15
2.02715e-15
1.79574e-15
1.16326e-15
2.30927e-16
-8.10083e-16
-1.72035e-15
-2.27108e-15
-2.3051e-15
-1.78323e-15
-8.02132e-16
4.22905e-16
1.60728e-15
2.46656e-15
2.7881e-15
2.48589e-15
1.62378e-15
4.0072e-16
-8.9833e-16
-1.97283e-15
-2.58017e-15
-2.59329e-15
-2.02826e-15
-1.03562e-15
1.40893e-16
1.22652e-15
1.98213e-15
2.25852e-15
2.02576e-15
1.37206e-15
4.74517e-16
-4.48867e-16
-1.19293e-15
-1.6113e-15
-1.64439e-15
-1.32437e-15
-7.58369e-16
-9.61329e-17
5.08507e-16
9.32643e-16
1.108e-15
1.02925e-15
7.47e-16
3.49049e-16
-6.41181e-17
-4.03222e-16
-6.0809e-16
-6.56403e-16
-5.6269e-16
-3.69343e-16
-1.32938e-16
9.03129e-17
2.56564e-16
3.41585e-16
3.42462e-16
2.74379e-16
1.64069e-16
4.20015e-17
-6.47567e-17
-1.37572e-16
-1.68489e-16
-1.59756e-16
-1.21283e-16
-6.69921e-17
-1.10968e-17
3.49027e-17
6.4004e-17
7.41584e-17
6.75929e-17
4.93938e-17
2.58189e-17
2.75381e-18
-1.53953e-17
-2.62449e-17
-2.94321e-17
-2.62001e-17
-1.87562e-17
-9.59144e-18
-9.11725e-19
5.73001e-18
9.57661e-18
1.06122e-17
9.37301e-18
6.69636e-18
3.47624e-18
4.72318e-19
-1.80286e-18
-3.11695e-18
-3.48629e-18
-3.10394e-18
-2.25284e-18
-1.22568e-18
-2.6549e-19
4.6708e-19
9.0096e-19
1.04233e-18
9.50824e-19
7.12391e-19
4.15055e-19
1.3153e-19
-8.99938e-20
-2.27561e-19
-2.816e-19
-2.67963e-19
-2.10168e-19
-1.32587e-19
-5.56042e-20
6.94686e-21
4.82904e-20
6.77199e-20
6.87802e-20
5.72356e-20
3.92795e-20
2.0248e-20
3.91608e-21
-7.68209e-21
-1.40487e-20
-1.58002e-20
-1.41798e-20
-1.06188e-20
-6.4109e-21
-2.52397e-21
4.64311e-22
2.33665e-21
3.15063e-21
3.13253e-21
2.57752e-21
1.77223e-21
9.46324e-22
2.51472e-22
-2.37959e-22
-5.10507e-22
-5.97027e-22
-5.49902e-22
-4.25921e-22
-2.74602e-22
-1.3209e-22
-1.96862e-23
5.44221e-23
9.17441e-23
9.96086e-23
8.77037e-23
6.54953e-23
4.06574e-23
1.84113e-23
1.54843e-24
-9.12865e-24
-1.41843e-23
-1.49271e-23
-1.28971e-23
-9.51037e-24
-5.86346e-24
-2.66951e-24
-2.85809e-25
1.20771e-24
1.91293e-24
2.0243e-24
1.75906e-24
1.31122e-24
8.27905e-25
4.03251e-25
8.37462e-26
-1.20399e-25
-2.22304e-25
-2.4675e-25
-2.21279e-25
-1.70449e-25
-1.12951e-25
-6.08979e-26
-2.05158e-26
6.46075e-27
2.12155e-26
2.64416e-26
2.52678e-26
2.05591e-26
1.45555e-26
8.76611e-27
4.02907e-27
6.57884e-28
-1.38768e-27
-2.34473e-27
-2.52474e-27
-2.2311e-27
-1.71331e-27
-1.14965e-27
-6.48991e-28
-2.63164e-28
-3.26914e-30
1.44443e-28
2.05558e-28
2.08239e-28
1.77589e-28
1.32983e-28
8.74939e-29
4.85799e-29
1.93797e-29
1.22097e-31
-1.06205e-29
-1.49712e-29
-1.51045e-29
-1.28809e-29
-9.69541e-30
-6.467e-30
-3.70879e-30
-1.6304e-30
-2.42187e-31
5.56372e-31
9.10827e-31
9.68774e-31
8.56085e-31
6.67364e-31
4.65642e-31
2.87118e-31
1.47899e-31
5.07555e-32
-9.16865e-33
-4.00998e-32
-5.08272e-32
-4.91071e-32
-4.0966e-32
-3.0592e-32
-2.0558e-32
-1.21866e-32
-5.93529e-33
-1.73262e-33
7.6326e-34
1.98642e-33
2.35495e-33
2.21615e-33
1.82829e-33
1.36435e-33
9.26761e-34
5.65682e-34
2.96435e-34
1.13791e-34
2.51595e-36
-5.56391e-35
-7.78404e-35
-7.81961e-35
-6.7176e-35
-5.18437e-35
-3.64752e-35
-2.32859e-35
-1.3107e-35
-5.93578e-36
-1.34054e-36
1.2691e-36
2.48023e-36
2.79405e-36
2.59599e-36
2.15705e-36
1.651e-36
1.17708e-36
7.82316e-37
4.80281e-37
2.65501e-37
1.23467e-37
3.70229e-38
-1.00024e-38
-3.10806e-38
-3.64847e-38
-3.34757e-38
-2.68115e-38
-1.93468e-38
-1.25958e-38
-7.19906e-39
-3.27597e-39
-6.72568e-40
8.77876e-40
1.65982e-39
1.92607e-39
1.87787e-39
1.66233e-39
1.37885e-39
1.08889e-39
8.26175e-40
6.05672e-40
4.30609e-40
2.97665e-40
2.00466e-40
1.31778e-40
8.47524e-41
5.35208e-41
3.33832e-41
2.07692e-41
1.30832e-41
8.51269e-42
5.83984e-42
4.27754e-42
3.33785e-42
2.73204e-42
2.29852e-42
1.95302e-42
1.6557e-42
1.39039e-42
1.15226e-42
9.4087e-43
7.56668e-43
5.99507e-43
4.68224e-43
3.60742e-43
2.74383e-43
2.06185e-43
1.5318e-43
1.12585e-43
8.19119e-44
5.90258e-44
4.21482e-44
2.98369e-44
2.09481e-44
1.45919e-44
1.00879e-44
6.9239e-45
4.71931e-45
3.19521e-45
2.14939e-45
1.43688e-45
9.5479e-46
6.30745e-46
4.1432e-46
2.70659e-46
1.75866e-46
1.13677e-46
7.31063e-47
4.6782e-47
2.97918e-47
1.88824e-47
1.19124e-47
7.48124e-48
4.6775e-48
2.91178e-48
1.80487e-48
1.11406e-48
6.8482e-49
4.1926e-49
2.55658e-49
1.55285e-49
9.39552e-50
5.66318e-50
3.40073e-50
2.0346e-50
1.21284e-50
7.20393e-51
4.26378e-51
2.51478e-51
1.4781e-51
8.6582e-52
5.05459e-52
2.94102e-52
1.7056e-52
9.85927e-53
5.68083e-53
3.26284e-53
1.86814e-53
1.06627e-53
6.06717e-54
3.44171e-54
1.94647e-54
1.09753e-54
6.17016e-55
3.45857e-55
1.93298e-55
1.07722e-55
5.98593e-56
3.31685e-56
1.83271e-56
1.00983e-56
5.54875e-57
3.04052e-57
1.66155e-57
9.05526e-58
4.92176e-58
2.66796e-58
1.44241e-58
7.77771e-59
4.18293e-59
2.24379e-59
1.20051e-59
6.4067e-60
3.41035e-60
1.81079e-60
9.59057e-61
5.06685e-61
2.67027e-61
1.40379e-61
7.36185e-62
3.85136e-62
2.00997e-62
1.04646e-62
5.43521e-63
2.81629e-63
1.45583e-63
7.50802e-64
3.86299e-64
1.98295e-64
1.01554e-64
5.189e-65
2.6453e-65
1.34549e-65
6.82811e-66
3.45735e-66
1.74668e-66
8.80468e-67
4.42844e-67
2.22244e-67
1.11289e-67
5.56068e-68
2.77241e-68
1.37926e-68
6.84695e-69
3.3917e-69
1.67652e-69
8.26948e-70
4.07031e-70
1.99922e-70
9.79902e-71
4.79289e-71
2.33942e-71
1.13951e-71
5.53904e-72
2.68694e-72
1.30075e-72
6.28409e-73
3.02978e-73
1.45781e-73
7.00034e-74
3.35479e-74
1.60452e-74
7.65878e-75
3.6485e-75
1.73465e-75
8.23105e-76
3.89806e-76
1.84244e-76
8.69151e-77
4.09218e-77
1.92299e-77
9.01911e-78
4.222e-78
1.97262e-78
9.19907e-79
4.28174e-79
1.98919e-79
9.22392e-80
4.26913e-80
1.9722e-80
9.094e-81
4.18554e-81
1.92285e-81
8.81734e-82
4.03582e-82
1.84387e-82
8.40883e-83
3.82781e-83
1.73931e-83
7.88895e-84
3.57172e-84
1.6142e-84
7.2821e-85
3.2793e-85
1.47412e-85
6.61476e-86
2.96297e-86
1.32487e-86
5.91366e-87
2.63498e-87
1.17203e-87
5.2041e-88
2.30673e-88
1.02069e-88
4.50862e-89
1.98812e-89
8.75181e-90
3.84599e-90
1.68724e-90
7.38936e-91
3.23071e-91
1.41012e-91
6.14438e-92
2.67282e-92
1.16074e-92
5.03233e-93
2.17811e-93
9.41165e-94
4.06005e-94
1.74855e-94
7.51807e-95
3.22715e-95
1.38299e-95
5.91707e-96
2.52746e-96
1.07784e-96
4.589e-97
1.95064e-97
8.27814e-98
3.50743e-98
1.4837e-98
6.2662e-99
2.64221e-99
1.11234e-99
4.67537e-100
1.96202e-100
8.22057e-101
3.43885e-101
1.43628e-101
5.9894e-102
2.4937e-102
1.03663e-102
4.30256e-103
1.783e-103
7.37738e-104
3.04774e-104
1.25713e-104
5.17743e-105
2.12901e-105
8.74126e-106
3.58347e-106
1.4668e-106
5.99477e-107
2.44632e-107
9.96771e-108
4.05526e-108
1.64734e-108
6.68182e-109
2.70615e-109
1.09435e-109
4.41884e-110
1.78161e-110
7.17243e-111
2.8832e-111
1.15728e-111
4.63827e-112
1.85623e-112
7.41767e-113
2.9598e-113
1.17929e-113
4.69179e-114
1.8639e-114
7.39387e-115
2.92879e-115
1.15844e-115
4.57537e-116
1.80448e-116
7.10638e-117
2.7946e-117
1.0974e-117
4.30314e-118
1.68494e-118
6.58813e-119
2.57229e-119
1.0029e-119
3.90461e-120
1.51804e-120
5.89347e-121
2.28479e-121
8.84522e-122
3.41948e-122
1.32008e-122
5.08899e-123
1.95909e-123
7.53133e-124
2.89123e-124
1.10838e-124
4.24319e-125
1.62216e-125
6.19291e-126
2.361e-126
8.9887e-127
3.41745e-127
1.29751e-127
4.91952e-128
1.86269e-128
7.04315e-129
2.65951e-129
1.00287e-129
3.77657e-130
1.42024e-130
5.33383e-131
2.00046e-131
7.49264e-132
2.80256e-132
1.04687e-132
3.90525e-133
1.45486e-133
5.41273e-134
2.01109e-134
7.46222e-135
2.76521e-135
1.02332e-135
3.78199e-136
1.3959e-136
5.14538e-137
1.89412e-137
6.96349e-138
2.55668e-138
9.37467e-139
3.43295e-139
1.25549e-139
4.58556e-140
1.67266e-140
6.09335e-141
2.21689e-141
8.05504e-142
2.92302e-142
1.05934e-142
3.83423e-143
1.386e-143
5.00371e-144
1.80411e-144
6.49651e-145
2.33637e-145
8.39168e-146
3.01026e-146
1.07847e-146
3.85886e-147
1.37899e-147
4.92168e-148
1.75435e-148
6.2456e-149
2.22067e-149
7.88586e-150
2.79685e-150
9.90707e-151
3.50492e-151
1.23842e-151
4.37038e-152
1.54038e-152
5.42248e-153
1.90646e-153
6.69455e-154
2.34789e-154
8.22427e-155
2.87728e-155
1.00538e-155
3.50872e-156
1.22302e-156
4.25778e-157
1.48048e-157
5.14155e-158
1.78342e-158
6.17854e-159
2.13791e-159
7.38866e-160
2.55045e-160
8.79308e-161
3.02789e-161
1.0414e-161
3.57742e-162
1.22744e-162
4.20638e-163
1.43978e-163
4.92226e-164
1.68079e-164
5.73249e-165
1.95279e-165
6.64433e-166
2.25804e-166
7.66469e-167
2.59863e-167
8.79992e-168
2.97647e-168
1.00557e-168
3.39319e-169
1.14366e-169
3.8501e-170
1.29461e-170
4.34808e-171
1.45864e-171
4.88754e-172
1.63579e-172
5.46837e-173
1.82593e-173
6.08981e-174
2.02872e-174
6.75049e-175
2.24361e-175
7.44831e-176
2.46983e-176
8.18043e-177
2.70636e-177
8.94328e-178
2.95196e-178
9.73252e-179
3.20512e-179
1.05431e-179
3.46413e-180
1.13691e-180
3.72705e-181
1.22042e-181
3.99174e-182
1.30414e-182
4.2559e-183
1.3873e-183
4.51709e-184
1.46912e-184
4.77275e-185
1.54878e-185
5.02025e-186
1.62545e-186
5.25698e-187
1.69829e-187
5.48031e-188
1.7665e-188
5.6877e-189
1.82927e-189
5.87675e-190
1.88588e-190
6.04521e-191
1.93565e-191
6.19104e-192
1.97798e-192
6.31248e-193
2.01234e-193
6.40803e-194
2.03832e-194
6.47654e-195
2.0556e-195
6.51718e-196
2.06398e-196
6.5295e-197
2.06338e-197
6.5134e-198
2.05383e-198
6.46917e-199
2.03546e-199
6.39745e-200
2.00855e-200
6.29923e-201
1.97345e-201
6.17584e-202
1.93063e-202
6.02886e-203
1.88064e-203
5.86019e-204
1.82412e-204
5.67191e-205
1.76174e-205
5.46628e-206
1.69426e-206
5.24572e-207
1.62244e-207
5.01271e-208
1.54709e-208
4.76979e-209
1.46901e-209
4.5195e-210
1.38899e-210
4.26431e-211
1.3078e-211
4.00664e-212
1.2262e-212
3.74877e-213
1.14488e-213
3.49284e-214
1.06449e-214
3.24081e-215
9.85626e-216
2.99446e-216
9.08811e-217
2.75536e-217
8.34511e-218
2.52485e-218
7.63116e-219
2.30407e-219
6.94951e-220
2.09394e-220
6.3027e-221
1.89514e-221
5.69262e-222
1.70819e-222
5.12053e-223
1.53338e-223
4.58711e-224
1.37084e-224
4.0925e-225
1.22053e-225
3.63637e-226
1.08229e-226
3.21796e-227
9.55821e-228
2.83617e-228
8.40712e-229
2.48957e-229
7.36482e-230
2.17652e-230
6.42575e-231
1.89517e-231
5.5839e-232
1.64358e-232
4.83289e-233
1.41967e-233
4.16615e-234
1.22137e-234
3.57706e-235
1.04658e-235
3.05904e-236
8.93235e-237
2.60564e-237
7.59333e-238
2.21064e-238
6.42947e-239
1.86811e-239
5.42248e-240
1.57241e-240
4.55518e-241
1.31831e-241
3.81154e-242
1.10092e-242
3.17678e-243
9.1578e-244
2.63736e-244
7.58791e-245
2.18097e-245
6.26258e-246
1.79652e-246
5.1486e-247
1.47409e-247
4.21632e-248
1.20482e-248
3.43945e-249
9.80922e-250
2.79485e-250
7.95543e-251
2.26229e-251
6.42708e-252
1.82415e-252
5.17235e-253
1.4652e-253
4.14657e-254
1.17237e-254
3.31148e-255
9.34466e-256
2.63444e-256
7.41991e-257
2.08782e-257
5.86913e-258
1.64831e-258
4.62479e-259
1.29638e-259
3.63042e-260
1.01571e-260
2.83904e-261
7.92796e-262
2.21177e-262
6.16464e-263
1.71658e-263
4.77542e-264
1.32724e-264
3.68534e-265
1.02234e-265
2.8334e-266
7.84534e-267
2.17024e-267
5.99786e-268
1.65607e-268
4.56829e-269
1.25899e-269
3.46647e-270
9.53558e-271
2.62061e-271
7.19535e-272
1.97378e-272
5.4093e-273
1.48109e-273
4.05152e-274
1.10727e-274
3.02333e-275
8.24741e-276
2.24775e-276
6.12037e-277
1.66497e-277
4.52519e-278
1.22876e-278
3.33348e-279
9.03503e-280
2.4466e-280
6.6191e-281
1.78911e-281
4.83146e-282
1.30353e-282
3.51374e-283
9.46285e-284
2.54611e-284
6.84445e-285
1.83825e-285
4.9326e-286
1.32237e-286
3.5419e-287
9.4782e-288
2.5341e-288
6.76904e-289
1.8065e-289
4.81681e-290
1.28318e-290
3.41527e-291
9.08179e-292
2.41284e-292
6.40463e-293
1.69852e-293
4.50046e-294
1.19139e-294
3.15112e-295
8.32695e-296
2.19846e-296
5.79916e-297
1.52835e-297
4.02435e-298
1.05872e-298
2.78279e-299
7.30792e-300
1.91744e-300
5.0265e-301
1.31651e-301
3.44507e-302
9.00718e-303
2.35286e-303
6.14072e-304
1.60125e-304
4.17175e-305
1.08591e-305
2.82415e-306
7.33839e-307
1.90516e-307
4.94177e-308
1.28072e-308
3.31622e-309
8.57933e-310
2.21761e-310
5.72712e-311
1.47778e-311
3.80981e-312
9.81342e-313
2.52557e-313
6.49413e-314
1.66842e-314
4.28265e-315
1.09836e-315
2.81449e-316
7.20575e-317
1.84325e-317
4.711e-318
1.20301e-318
3.06938e-319
7.82452e-320
1.99257e-320
5.07405e-321
1.28951e-321
3.21143e-322
7.90505e-323
9.88131e-324
0
0
0
0
0
0
0
0
0
0
0
0
0
0
0
0
0
0
0
0
0
0
0
0
0
0
0
0
0
0
0
0