# vtk DataFile Version 2.0
FlowField
ASCII
DATASET STRUCTURED_GRID
DIMENSIONS 1602 1 52
POINTS 83304 float
0 0 0
0.1 0 0
0.2 0 0
0.3 0 0
0.4 0 0
0.5 0 0
0.6 0 0
0.7 0 0
0.8 0 0
0.9 0 0
1 0 0
1.1 0 0
1.2 0 0
1.3 0 0
1.4 0 0
1.5 0 0
1.6 0 0
1.7 0 0
1.8 0 0
1.9 0 0
2 0 0
2.1 0 0
2.2 0 0
2.3 0 0
2.4 0 0
2.5 0 0
2.6 0 0
2.7 0 0
2.8 0 0
2.9 0 0
3 0 0
3.1 0 0
3.2 0 0
3.3 0 0
3.4 0 0
3.5 0 0
3.6 0 0
3.7 0 0
3.8 0 0
3.9 0 0
4 0 0
4.1 0 0
4.2 0 0
4.3 0 0
4.4 0 0
4.5 0 0
4.6 0 0
4.7 0 0
4.8 0 0
4.9 0 0
5 0 0
5.1 0 0
5.2 0 0
5.3 0 0
5.4 0 0
5.5 0 0
5.6 0 0
5.7 0 0
5.8 0 0
5.9 0 0
6 0 0
6.1 0 0
6.2 0 0
6.3 0 0
6.4 0 0
6.5 0 0
6.6 0 0
6.7 0 0
6.8 0 0
6.9 0 0
7 0 0
7.1 0 0
7.2 0 0
7.3 0 0
7.4 0 0
7.5 0 0
7.6 0 0
7.7 0 0
7.8 0 0
7.9 0 0
8 0 0
8.1 0 0
8.2 0 0
8.3 0 0
8.4 0 0
8.5 0 0
8.6 0 0
8.7 0 0
8.8 0 0
8.9 0 0
9 0 0
9.1 0 0
9.2 0 0
9.3 0 0
9.4 0 0
9.5 0 0
9.6 0 0
9.7 0 0
9.8 0 0
9.9 0 0
10 0 0
10.1 0 0
10.2 0 0
10.3 0 0
10.4 0 0
10.5 0 0
10.6 0 0
10.7 0 0
10.8 0 0
10.9 0 0
11 0 0
11.1 0 0
11.2 0 0
11.3 0 0
11.4 0 0
11.5 0 0
11.6 0 0
11.7 0 0
11.8 0 0
11.9 0 0
12 0 0
12.1 0 0
12.2 0 0
12.3 0 0
12.4 0 0
12.5 0 0
12.6 0 0
12.7 0 0
12.8 0 0
12.9 0 0
13 0 0
13.1 0 0
13.2 0 0
13.3 0 0
13.4 0 0
13.5 0 0
13.6 0 0
13.7 0 0
13.8 0 0
13.9 0 0
14 0 0
14.1 0 0
14.2 0 0
14.3 0 0
14.4 0 0
14.5 0 0
14.6 0 0
14.7 0 0
14.8 0 0
14.9 0 0
15 0 0
15.1 0 0
15.2 0 0
15.3 0 0
15.4 0 0
15.5 0 0
15.6 0 0
15.7 0 0
15.8 0 0
15.9 0 0
16 0 0
16.1 0 0
16.2 0 0
16.3 0 0
16.4 0 0
16.5 0 0
16.6 0 0
16.7 0 0
16.8 0 0
16.9 0 0
17 0 0
17.1 0 0
17.2 0 0
17.3 0 0
17.4 0 0
17.5 0 0
17.6 0 0
17.7 0 0
17.8 0 0
17.9 0 0
18 0 0
18.1 0 0
18.2 0 0
18.3 0 0
18.4 0 0
18.5 0 0
18.6 0 0
18.7 0 0
18.8 0 0
18.9 0 0
19 0 0
19.1 0 0
19.2 0 0
19.3 0 0
19.4 0 0
19.5 0 0
19.6 0 0
19.7 0 0
19.8 0 0
19.9 0 0
20 0 0
20.1 0 0
20.2 0 0
20.3 0 0
20.4 0 0
20.5 0 0
20.6 0 0
20.7 0 0
20.8 0 0
20.9 0 0
21 0 0
21.1 0 0
21.2 0 0
21.3 0 0
21.4 0 0
21.5 0 0
21.6 0 0
21.7 0 0
21.8 0 0
21.9 0 0
22 0 0
22.1 0 0
22.2 0 0
22.3 0 0
22.4 0 0
22.5 0 0
22.6 0 0
22.7 0 0
22.8 0 0
22.9 0 0
23 0 0
23.1 0 0
23.2 0 0
23.3 0 0
23.4 0 0
23.5 0 0
23.6 0 0
23.7 0 0
23.8 0 0
23.9 0 0
24 0 0
24.1 0 0
24.2 0 0
24.3 0 0
24.4 0 0
24.5 0 0
24.6 0 0
24.7 0 0
24.8 0 0
24.9 0 0
25 0 0
25.1 0 0
25.2 0 0
25.3 0 0
25.4 0 0
25.5 0 0
25.6 0 0
25.7 0 0
25.8 0 0
25.9 0 0
26 0 0
26.1 0 0
26.2 0 0
26.3 0 0
26.4 0 0
26.5 0 0
26.6 0 0
26.7 0 0
26.8 0 0
26.9 0 0
27 0 0
27.1 0 0
27.2 0 0
27.3 0 0
27.4 0 0
27.5 0 0
27.6 0 0
27.7 0 0
27.8 0 0
27.9 0 0
28 0 0
28.1 0 0
28.2 0 0
28.3 0 0
28.4 0 0
28.5 0 0
28.6 0 0
28.7 0 0
28.8 0 0
28.9 0 0
29 0 0
29.1 0 0
29.2 0 0
29.3 0 0
29.4 0 0
29.5 0 0
29.6 0 0
29.7 0 0
29.8 0 0
29.9 0 0
30 0 0
30.1 0 0
30.2 0 0
30.3 0 0
30.4 0 0
30.5 0 0
30.6 0 0
30.7 0 0
30.8 0 0
30.9 0 0
31 0 0
31.1 0 0
31.2 0 0
31.3 0 0
31.4 0 0
31.5 0 0
31.6 0 0
31.7 0 0
31.8 0 0
31.9 0 0
32 0 0
32.1 0 0
32.2 0 0
32.3 0 0
32.4 0 0
32.5 0 0
32.6 0 0
32.7 0 0
32.8 0 0
32.9 0 0
33 0 0
33.1 0 0
33.2 0 0
33.3 0 0
33.4 0 0
33.5 0 0
33.6 0 0
33.7 0 0
33.8 0 0
33.9 0 0
34 0 0
34.1 0 0
34.2 0 0
34.3 0 0
34.4 0 0
34.5 0 0
34.6 0 0
34.7 0 0
34.8 0 0
34.9 0 0
35 0 0
35.1 0 0
35.2 0 0
35.3 0 0
35.4 0 0
35.5 0 0
35.6 0 0
35.7 0 0
35.8 0 0
35.9 0 0
36 0 0
36.1 0 0
36.2 0 0
36.3 0 0
36.4 0 0
36.5 0 0
36.6 0 0
36.7 0 0
36.8 0 0
36.9 0 0
37 0 0
37.1 0 0
37.2 0 0
37.3 0 0
37.4 0 0
37.5 0 0
37.6 0 0
37.7 0 0
37.8 0 0
37.9 0 0
38 0 0
38.1 0 0
38.2 0 0
38.3 0 0
38.4 0 0
38.5 0 0
38.6 0 0
38.7 0 0
38.8 0 0
38.9 0 0
39 0 0
39.1 0 0
39.2 0 0
39.3 0 0
39.4 0 0
39.5 0 0
39.6 0 0
39.7 0 0
39.8 0 0
39.9 0 0
40 0 0
40.1 0 0
40.2 0 0
40.3 0 0
40.4 0 0
40.5 0 0
40.6 0 0
40.7 0 0
40.8 0 0
40.9 0 0
41 0 0
41.1 0 0
41.2 0 0
41.3 0 0
41.4 0 0
41.5 0 0
41.6 0 0
41.7 0 0
41.8 0 0
41.9 0 0
42 0 0
42.1 0 0
42.2 0 0
42.3 0 0
42.4 0 0
42.5 0 0
42.6 0 0
42.7 0 0
42.8 0 0
42.9 0 0
43 0 0
43.1 0 0
43.2 0 0
43.3 0 0
43.4 0 0
43.5 0 0
43.6 0 0
43.7 0 0
43.8 0 0
43.9 0 0
44 0 0
44.1 0 0
44.2 0 0
44.3 0 0
44.4 0 0
44.5 0 0
44.6 0 0
44.7 0 0
44.8 0 0
44.9 0 0
45 0 0
45.1 0 0
45.2 0 0
45.3 0 0
45.4 0 0
45.5 0 0
45.6 0 0
45.7 0 0
45.8 0 0
45.9 0 0
46 0 0
46.1 0 0
46.2 0 0
46.3 0 0
46.4 0 0
46.5 0 0
46.6 0 0
46.7 0 0
46.8 0 0
46.9 0 0
47 0 0
47.1 0 0
47.2 0 0
47.3 0 0
47.4 0 0
47.5 0 0
47.6 0 0
47.7 0 0
47.8 0 0
47.9 0 0
48 0 0
48.1 0 0
48.2 0 0
48.3 0 0
48.4 0 0
48.5 0 0
48.6 0 0
48.7 0 0
48.8 0 0
48.9 0 0
49 0 0
49.1 0 0
49.2 0 0
49.3 0 0
49.4 0 0
49.5 0 0
49.6 0 0
49.7 0 0
49.8 0 0
49.9 0 0
50 0 0
50.1 0 0
50.2 0 0
50.3 0 0
50.4 0 0
50.5 0 0
50.6 0 0
50.7 0 0
50.8 0 0
50.9 0 0
51 0 0
51.1 0 0
51.2 0 0
51.3 0 0
51.4 0 0
51.5 0 0
51.6 0 0
51.7 0 0
51.8 0 0
51.9 0 0
52 0 0
52.1 0 0
52.2 0 0
52.3 0 0
52.4 0 0
52.5 0 0
52.6 0 0
52.7 0 0
52.8 0 0
52.9 0 0
53 0 0
53.1 0 0
53.2 0 0
53.3 0 0
53.4 0 0
53.5 0 0
53.6 0 0
53.7 0 0
53.8 0 0
53.9 0 0
54 0 0
54.1 0 0
54.2 0 0
54.3 0 0
54.4 0 0
54.5 0 0
54.6 0 0
54.7 0 0
54.8 0 0
54.9 0 0
55 0 0
55.1 0 0
55.2 0 0
55.3 0 0
55.4 0 0
55.5 0 0
55.6 0 0
55.7 0 0
55.8 0 0
55.9 0 0
56 0 0
56.1 0 0
56.2 0 0
56.3 0 0
56.4 0 0
56.5 0 0
56.6 0 0
56.7 0 0
56.8 0 0
56.9 0 0
57 0 0
57.1 0 0
57.2 0 0
57.3 0 0
57.4 0 0
57.5 0 0
57.6 0 0
57.7 0 0
57.8 0 0
57.9 0 0
58 0 0
58.1 0 0
58.2 0 0
58.3 0 0
58.4 0 0
58.5 0 0
58.6 0 0
58.7 0 0
58.8 0 0
58.9 0 0
59 0 0
59.1 0 0
59.2 0 0
59.3 0 0
59.4 0 0
59.5 0 0
59.6 0 0
59.7 0 0
59.8 0 0
59.9 0 0
60 0 0
60.1 0 0
60.2 0 0
60.3 0 0
60.4 0 0
60.5 0 0
60.6 0 0
60.7 0 0
60.8 0 0
60.9 0 0
61 0 0
61.1 0 0
61.2 0 0
61.3 0 0
61.4 0 0
61.5 0 0
61.6 0 0
61.7 0 0
61.8 0 0
61.9 0 0
62 0 0
62.1 0 0
62.2 0 0
62.3 0 0
62.4 0 0
62.5 0 0
62.6 0 0
62.7 0 0
62.8 0 0
62.9 0 0
63 0 0
63.1 0 0
63.2 0 0
63.3 0 0
63.4 0 0
63.5 0 0
63.6 0 0
63.7 0 0
63.8 0 0
63.9 0 0
64 0 0
64.1 0 0
64.2 0 0
64.3 0 0
64.4 0 0
64.5 0 0
64.6 0 0
64.7 0 0
64.8 0 0
64.9 0 0
65 0 0
65.1 0 0
65.2 0 0
65.3 0 0
65.4 0 0
65.5 0 0
65.6 0 0
65.7 0 0
65.8 0 0
65.9 0 0
66 0 0
66.1 0 0
66.2 0 0
66.3 0 0
66.4 0 0
66.5 0 0
66.6 0 0
66.7 0 0
66.8 0 0
66.9 0 0
67 0 0
67.1 0 0
67.2 0 0
67.3 0 0
67.4 0 0
67.5 0 0
67.6 0 0
67.7 0 0
67.8 0 0
67.9 0 0
68 0 0
68.1 0 0
68.2 0 0
68.3 0 0
68.4 0 0
68.5 0 0
68.6 0 0
68.7 0 0
68.8 0 0
68.9 0 0
69 0 0
69.1 0 0
69.2 0 0
69.3 0 0
69.4 0 0
69.5 0 0
69.6 0 0
69.7 0 0
69.8 0 0
69.9 0 0
70 0 0
70.1 0 0
70.2 0 0
70.3 0 0
70.4 0 0
70.5 0 0
70.6 0 0
70.7 0 0
70.8 0 0
70.9 0 0
71 0 0
71.1 0 0
71.2 0 0
71.3 0 0
71.4 0 0
71.5 0 0
71.6 0 0
71.7 0 0
71.8 0 0
71.9 0 0
72 0 0
72.1 0 0
72.2 0 0
72.3 0 0
72.4 0 0
72.5 0 0
72.6 0 0
72.7 0 0
72.8 0 0
72.9 0 0
73 0 0
73.1 0 0
73.2 0 0
73.3 0 0
73.4 0 0
73.5 0 0
73.6 0 0
73.7 0 0
73.8 0 0
73.9 0 0
74 0 0
74.1 0 0
74.2 0 0
74.3 0 0
74.4 0 0
74.5 0 0
74.6 0 0
74.7 0 0
74.8 0 0
74.9 0 0
75 0 0
75.1 0 0
75.2 0 0
75.3 0 0
75.4 0 0
75.5 0 0
75.6 0 0
75.7 0 0
75.8 0 0
75.9 0 0
76 0 0
76.1 0 0
76.2 0 0
76.3 0 0
76.4 0 0
76.5 0 0
76.6 0 0
76.7 0 0
76.8 0 0
76.9 0 0
77 0 0
77.1 0 0
77.2 0 0
77.3 0 0
77.4 0 0
77.5 0 0
77.6 0 0
77.7 0 0
77.8 0 0
77.9 0 0
78 0 0
78.1 0 0
78.2 0 0
78.3 0 0
78.4 0 0
78.5 0 0
78.6 0 0
78.7 0 0
78.8 0 0
78.9 0 0
79 0 0
79.1 0 0
79.2 0 0
79.3 0 0
79.4 0 0
79.5 0 0
79.6 0 0
79.7 0 0
79.8 0 0
79.9 0 0
80 0 0
80.1 0 0
80.2 0 0
80.3 0 0
80.4 0 0
80.5 0 0
80.6 0 0
80.7 0 0
80.8 0 0
80.9 0 0
81 0 0
81.1 0 0
81.2 0 0
81.3 0 0
81.4 0 0
81.5 0 0
81.6 0 0
81.7 0 0
81.8 0 0
81.9 0 0
82 0 0
82.1 0 0
82.2 0 0
82.3 0 0
82.4 0 0
82.5 0 0
82.6 0 0
82.7 0 0
82.8 0 0
82.9 0 0
83 0 0
83.1 0 0
83.2 0 0
83.3 0 0
83.4 0 0
83.5 0 0
83.6 0 0
83.7 0 0
83.8 0 0
83.9 0 0
84 0 0
84.1 0 0
84.2 0 0
84.3 0 0
84.4 0 0
84.5 0 0
84.6 0 0
84.7 0 0
84.8 0 0
84.9 0 0
85 0 0
85.1 0 0
85.2 0 0
85.3 0 0
85.4 0 0
85.5 0 0
85.6 0 0
85.7 0 0
85.8 0 0
85.9 0 0
86 0 0
86.1 0 0
86.2 0 0
86.3 0 0
86.4 0 0
86.5 0 0
86.6 0 0
86.7 0 0
86.8 0 0
86.9 0 0
87 0 0
87.1 0 0
87.2 0 0
87.3 0 0
87.4 0 0
87.5 0 0
87.6 0 0
87.7 0 0
87.8 0 0
87.9 0 0
88 0 0
88.1 0 0
88.2 0 0
88.3 0 0
88.4 0 0
88.5 0 0
88.6 0 0
88.7 0 0
88.8 0 0
88.9 0 0
89 0 0
89.1 0 0
89.2 0 0
89.3 0 0
89.4 0 0
89.5 0 0
89.6 0 0
89.7 0 0
89.8 0 0
89.9 0 0
90 0 0
90.1 0 0
90.2 0 0
90.3 0 0
90.4 0 0
90.5 0 0
90.6 0 0
90.7 0 0
90.8 0 0
90.9 0 0
91 0 0
91.1 0 0
91.2 0 0
91.3 0 0
91.4 0 0
91.5 0 0
91.6 0 0
91.7 0 0
91.8 0 0
91.9 0 0
92 0 0
92.1 0 0
92.2 0 0
92.3 0 0
92.4 0 0
92.5 0 0
92.6 0 0
92.7 0 0
92.8 0 0
92.9 0 0
93 0 0
93.1 0 0
93.2 0 0
93.3 0 0
93.4 0 0
93.5 0 0
93.6 0 0
93.7 0 0
93.8 0 0
93.9 0 0
94 0 0
94.1 0 0
94.2 0 0
94.3 0 0
94.4 0 0
94.5 0 0
94.6 0 0
94.7 0 0
94.8 0 0
94.9 0 0
95 0 0
95.1 0 0
95.2 0 0
95.3 0 0
95.4 0 0
95.5 0 0
95.6 0 0
95.7 0 0
95.8 0 0
95.9 0 0
96 0 0
96.1 0 0
96.2 0 0
96.3 0 0
96.4 0 0
96.5 0 0
96.6 0 0
96.7 0 0
96.8 0 0
96.9 0 0
97 0 0
97.1 0 0
97.2 0 0
97.3 0 0
97.4 0 0
97.5 0 0
97.6 0 0
97.7 0 0
97.8 0 0
97.9 0 0
98 0 0
98.1 0 0
98.2 0 0
98.3 0 0
98.4 0 0
98.5 0 0
98.6 0 0
98.7 0 0
98.8 0 0
98.9 0 0
99 0 0
99.1 0 0
99.2 0 0
99.3 0 0
99.4 0 0
99.5 0 0
99.6 0 0
99.7 0 0
99.8 0 0
99.9 0 0
100 0 0
100.1 0 0
100.2 0 0
100.3 0 0
100.4 0 0
100.5 0 0
100.6 0 0
100.7 0 0
100.8 0 0
100.9 0 0
101 0 0
101.1 0 0
101.2 0 0
101.3 0 0
101.4 0 0
101.5 0 0
101.6 0 0
101.7 0 0
101.8 0 0
101.9 0 0
102 0 0
102.1 0 0
102.2 0 0
102.3 0 0
102.4 0 0
102.5 0 0
102.6 0 0
102.7 0 0
102.8 0 0
102.9 0 0
103 0 0
103.1 0 0
103.2 0 0
103.3 0 0
103.4 0 0
103.5 0 0
103.6 0 0
103.7 0 0
103.8 0 0
103.9 0 0
104 0 0
104.1 0 0
104.2 0 0
104.3 0 0
104.4 0 0
104.5 0 0
104.6 0 0
104.7 0 0
104.8 0 0
104.9 0 0
105 0 0
105.1 0 0
105.2 0 0
105.3 0 0
105.4 0 0
105.5 0 0
105.6 0 0
105.7 0 0
105.8 0 0
105.9 0 0
106 0 0
106.1 0 0
106.2 0 0
106.3 0 0
106.4 0 0
106.5 0 0
106.6 0 0
106.7 0 0
106.8 0 0
106.9 0 0
107 0 0
107.1 0 0
107.2 0 0
107.3 0 0
107.4 0 0
107.5 0 0
107.6 0 0
107.7 0 0
107.8 0 0
107.9 0 0
108 0 0
108.1 0 0
108.2 0 0
108.3 0 0
108.4 0 0
108.5 0 0
108.6 0 0
108.7 0 0
108.8 0 0
108.9 0 0
109 0 0
109.1 0 0
109.2 0 0
109.3 0 0
109.4 0 0
109.5 0 0
109.6 0 0
109.7 0 0
109.8 0 0
109.9 0 0
110 0 0
110.1 0 0
110.2 0 0
110.3 0 0
110.4 0 0
110.5 0 0
110.6 0 0
110.7 0 0
110.8 0 0
110.9 0 0
111 0 0
111.1 0 0
111.2 0 0
111.3 0 0
111.4 0 0
111.5 0 0
111.6 0 0
111.7 0 0
111.8 0 0
111.9 0 0
112 0 0
[...]
POINT_DATA 83304

SCALARS pressure float 1
LOOKUP_TABLE default
0
0
0
0
0
0
0
0
0
0
0
0
0
0
0
0
0
0
0
0
0
0
0
0
0
0
0
0
0
0
0
0
0
0
0
0
0
0
0
0
0
0
0
0
0
0
0
0
0
0
0
0
0
0
0
0
0
0
0
0
0
0
0
0
0
0
0
0
0
0
0
0
0
0
0
0
0
0
0
0
0
0
0
0
0
0
0
0
0
0
0
0
0
0
0
0
0
0
0
0
0
0
0
0
0
0
0
0
0
0
0
0
0
0
0
0
0
0
0
0
0
0
0
0
0
0
0
0
0
0
0
0
0
0
0
0
0
0
0
0
0
0
0
0
0
0
0
0
0
0
0
0
0
0
0
0
0
0
0
0
0
0
0
0
0
0
0
0
0
0
0
0
0
0
0
0
0
0
0
0
0
0
0
0
0
0
0
0
0
0
0
0
0
0
0
0
0
0
0
0
0
0
0
0
0
0
0
0
0
0
0
0
0
0
0
0
0
0
0
0
0
0
0
0
0
0
0
0
0
0
0
0
0
0
0
0
0
0
0
0
0
0
0
0
0
0
0
0
0
0
0
0
0
0
0
0
0
0
0
0
0
0
0
0
0
0
0
0
0
0
0
0
0
0
0
0
0
0
0
0
0
0
0
0
0
0
0
0
0
0
0
0
0
0
0
0
0
0
0
0
0
0
0
0
0
0
0
0
0
0
0
0
0
0
0
0
0
0
0
0
0
0
0
0
0
0
0
0
0
0
0
0
0
0
0
0
0
0
0
0
0
0
0
0
0
0
0
0
0
0
0
0
0
0
0
0
0
0
0
0
0
0
0
0
0
0
0
0
0
0
0
0
0
0
0
0
0
0
0
0
0
0
0
0
0
0
0
0
0
0
0
0
0
0
0
0
0
0
0
0
0
0
0
0
0
0
0
0
0
0
0
0
0
0
0
0
0
0
0
0
0
0
0
0
0
0
0
0
0
0
0
0
0
0
0
0
0
0
0
0
0
0
0
0
0
0
0
0
0
0
0
0
0
0
0
0
0
0
0
0
0
0
0
0
0
0
0
0
0
0
0
0
0
0
0
0
0
0
0
0
0
0
0
0
0
0
0
0
0
0
0
0
0
0
0
0
0
0
0
0
0
0
0
0
0
0
0
0
0
0
0
0
0
0
0
0
0
0
0
0
0
0
0
0
0
0
0
0
0
0
0
0
0
0
0
0
0
0
0
0
0
0
0
0
0
0
0
0
0
0
0
0
0
0
0
0
0
0
0
0
0
0
0
0
0
0
0
0
0
0
0
0
0
0
0
0
0
0
0
0
0
0
0
0
0
0
0
0
0
0
0
0
0
0
0
0
0
0
0
0
0
0
0
0
0
0
0
0
0
0
0
0
0
0
0
0
0
0
0
0
0
0
0
0
0
0
0
0
0
0
0
0
0
0
0
0
0
0
0
0
0
0
0
0
0
0
0
0
0
0
0
0
0
0
0
0
0
0
0
0
0
0
0
0
0
0
0
0
0
0
0
0
0
0
0
0
0
0
0
0
0
0
0
0
0
0
0
0
0
0
0
0
0
0
0
0
0
0
0
0
0
0
0
0
0
0
0
0
0
0
0
0
0
0
0
0
0
0
0
0
0
0
0
0
0
0
0
0
0
0
0
0
0
0
0
0
0
0
0
0
0
0
0
0
0
0
0
0
0
0
0
0
0
0
0
0
0
0
0
0
0
0
0
0
0
0
0
0
0
0
0
0
0
0
0
0
0
0
0
0
0
0
0
0
0
0
0
0
0
0
0
0
0
0
0
0
0
0
0
0
0
0
0
0
0
0
0
0
0
0
0
0
0
0
0
0
0
0
0
0
0
0
0
0
0
0
0
0
0
0
0
0
0
0
0
0
0
0
0
0
0
0
0
0
0
0
0
0
0
0
0
0
0
0
0
0
0
0
0
0
0
0
0
0
0
0
0
0
0
0
0
0
0
0
0
0
0
0
0
0
0
0
0
0
0
0
0
0
0
0
0
0
0
0
0
0
0
0
0
0
0
0
0
0
0
0
0
0
0
0
0
0
0
0
0
0
0
0
0
0
0
0
0
0
0
0
0
0
0
0
0
0
0
0
0
0
0
0
0
0
0
0
0
0
0
0
0
0
0
0
0
0
0
0
0
0
0
0
0
0
0
0
0
0
0
0
0
0
0
0
0
0
0
0
0
0
0
0
0
0
0
0
0
0
0
0
0
0
0
0
0
0
0
0
0
0
0
0
0
0
0
0
0
0
0
0
0
0
0
0
0
0
0
0
0
0
0
0
0
0
0
0
0
0
0
0
0
0
0
0
0
0
0
0
0
0
0
0
0
0
0
0
0
0
0
0
0
0
0
0
0
0
0
0
0
0
0
0
0
0
0
0
0
0
0
0
0
0
0
0
0
0
0
0
0
0
0
0
0
0
0
0
0
0
0
0
0
0
0
0
0
0
0
0
0
0
0
0
0
0
0
0
0
0
0
0
0
0
0
0
0
0
0
0
0
0
0
0
0
0
0
0
0
0
0
0
0
0
0
0
0
0
0
0
0
0
0
0
0
0
0
0
0
0
0
0
0
0
0
0
0
0
0
0
0
0
0
0
0
0
0
0
0
0
0
0
0
0
0
0
0
0
0
0
0
0
0
0
0
0
0
0
0
0
0
0
0
0
0
0
0
0
0
0
0
0
0
0
0
0
0
0
0
0
0
0
0
0
0
0
0
0
0
0
0
0
0
0
0
0
0
0
0
0
0
0
0
0
0
0
0
0
0
0
0
0
0
0
0
0
0
0
0
0
0
0
0
0
0
0
0
0
0
0
0
0
0
0
0
0
0
0
0
0
0
0
0
0
0
0
0
0
0
0
0
0
0
0
0
0
0
0
0
0
0
0
0
0
0
0
0
0
0
0
0
0
0
0
0
0
0
0
0
0
0
0
0
0
0
0
0
0
0
0
0
0
0
0
0
0
0
0
0
0
0
0
0
0
0
0
0
0
0
0
0
0
0
0
0
0
0
0
0
0
0
0
0
0
0
0
0
0
0
0
0
0
0
0
0
0
0
0
0
0
0
0
0
0
0
0
0
0
0
0
0
0
0
0
0
0
0
0
0
0
0
0
0
0
0
0
0
0
0
0
0
0
0
0
0
0
0
0
0
0
0
0
0
0
0
0
0
0
0
0
0
0
0
0
0
0
0
0
0
0
0
0
0
0
0
0
0
0
0
0
0
0
0
0
0
0
0
0
0
0
0
0
0
0
0
0
0
0
0
0
0
0
0
0
0
0
0
0
0
0
0
0
0
0
0
0
0
0
0
0
0
0
0
0
0
0
0
0
0
0
0
0
0
0
0
0
0
0
0
0
0
0
0
0
0
0
0
0
0
0
0
0
0
0
0
0
0
0
0
0
0
0
0
0
0
0
0
0
0
0
0
0
0
0
0
0
0
0
0
0
0
0
0
0
0
0
0
0
0
0
0
0
0
0
0
0
0
0
0
0
0
0
0
0
0
0
0
0
0
0
0
0
0
0
0
0
0
0
0
0
0
0
0
0
0
0
0
0
0
0
0
0
0
0
0
0
0
0
0
0
0
0
0
0
0
0
0
0
0
0.0776414
0.052903
0.0436505
0.0357427
0.0304802
0.0271091
0.0248026
0.0231169
0.021802
0.0207295
0.0198262
0.0190474
0.0183644
0.0177586
0.0172161
0.0167265
0.016283
0.0158798
0.0155126
0.0151782
0.0148738
0.0145955
0.0143384
0.0140948
0.0138524
0.0135929
0.0132905
0.0129121
0.0124182
0.0117669
0.0109209
0.00985855
0.008587
0.00715731
0.00567676
0.0043135
0.0032893
0.00285753
0.00326967
0.00473669
0.00739608
0.0112975
0.0163988
0.0225821
0.0296811
0.0374951
0.0458137
0.0544344
0.0631547
0.0718109
0.0802449
0.0882896
0.0957844
0.102583
0.108568
0.113619
0.117582
0.120279
0.121555
0.121329
0.119596
0.116426
0.111946
0.106335
0.0998152
0.0926425
0.0850861
0.0774031
0.0698171
0.0625054
0.0555959
0.0491712
0.0432764
0.0379268
0.0331162
0.0288232
0.0250168
0.0216601
0.0187139
0.0161381
0.0138938
0.0119442
0.0102548
0.00879407
0.00753358
0.00644766
0.00551353
0.004711
0.00402234
0.00343204
0.00292652
0.00249395
0.00212405
0.00180793
0.00153798
0.00130762
0.00111117
0.000943647
0.000800756
0.000678873
0.000575023
0.000486757
0.000411962
0.000348679
0.00029506
0.000249493
0.000210797
0.000178298
0.000151683
0.000130595
0.000114207
0.000100993
8.89253e-05
7.60573e-05
6.1266e-05
4.47935e-05
2.82884e-05
1.42652e-05
5.16438e-06
2.38511e-06
5.67692e-06
1.31308e-05
2.17626e-05
2.84556e-05
3.09069e-05
2.8252e-05
2.11842e-05
1.15833e-05
1.83229e-06
-5.92057e-06
-1.03196e-05
-1.10405e-05
-8.69838e-06
-4.51405e-06
1.15374e-07
4.00161e-06
6.40937e-06
7.12676e-06
6.38576e-06
4.69221e-06
2.63337e-06
7.18714e-07
-7.15299e-07
-1.53129e-06
-1.7623e-06
-1.55229e-06
-1.08983e-06
-5.53086e-07
-7.5285e-08
2.68194e-07
4.5557e-07
5.04243e-07
4.53085e-07
3.46607e-07
2.23794e-07
1.12309e-07
2.72742e-08
-2.68878e-08
-5.3145e-08
-5.83607e-08
-5.04229e-08
-3.63374e-08
-2.12797e-08
-8.39934e-09
9.02941e-10
6.4808e-09
8.92339e-09
9.1244e-09
7.98418e-09
6.24364e-09
4.42242e-09
2.8259e-09
1.58824e-09
7.26748e-10
1.92128e-10
-9.27819e-11
-2.07427e-10
-2.19581e-10
-1.79984e-10
-1.22397e-10
-6.64796e-11
-2.15934e-11
9.55784e-12
2.80031e-11
3.64315e-11
3.78953e-11
3.51144e-11
3.01929e-11
2.45834e-11
1.91775e-11
1.44415e-11
1.05523e-11
7.50946e-12
5.21948e-12
3.551e-12
2.36887e-12
1.55175e-12
9.99328e-13
6.33341e-13
3.95353e-13
2.43263e-13
1.47636e-13
8.84277e-14
5.2298e-14
3.05551e-14
1.76427e-14
1.00715e-14
5.68618e-15
3.17601e-15
1.75552e-15
9.60523e-16
5.20353e-16
2.79175e-16
1.48368e-16
7.81223e-17
4.0763e-17
2.1081e-17
1.08075e-17
5.49334e-18
2.76881e-18
1.38407e-18
6.8626e-19
3.37555e-19
1.64733e-19
7.97717e-20
3.83352e-20
1.82842e-20
8.65625e-21
4.0682e-21
1.89818e-21
8.79374e-22
4.04531e-22
1.84804e-22
8.38465e-23
3.77843e-23
1.69131e-23
7.52063e-24
3.32228e-24
1.45815e-24
6.35884e-25
2.75547e-25
1.18655e-25
5.07774e-26
2.15964e-26
9.1294e-27
3.83601e-27
1.6022e-27
6.65243e-28
2.74594e-28
1.12687e-28
4.5978e-29
1.86527e-29
7.52437e-30
3.01826e-30
1.20398e-30
4.77619e-31
1.88435e-31
7.39395e-32
2.88567e-32
1.12019e-32
4.32538e-33
1.66137e-33
6.34797e-34
2.41293e-34
9.12461e-35
3.43287e-35
1.28497e-35
4.78556e-36
1.77335e-36
6.53872e-37
2.39906e-37
8.75903e-38
3.18236e-38
1.15063e-38
4.14028e-39
1.48267e-39
5.28435e-40
1.8745e-40
6.61818e-41
2.32575e-41
8.13528e-42
2.83255e-42
9.81727e-43
3.38706e-43
1.16329e-43
3.97735e-44
1.3538e-44
4.58755e-45
1.54768e-45
5.1984e-46
1.73842e-46
5.78825e-47
1.91892e-47
6.33424e-48
2.08195e-48
6.81384e-49
2.22061e-49
7.2064e-50
2.32884e-50
7.49459e-51
2.40187e-51
7.66576e-52
2.43654e-52
7.7128e-53
2.43154e-53
7.63462e-54
2.38749e-54
7.43618e-55
2.30686e-55
7.12797e-56
2.19376e-56
6.72511e-57
2.05355e-57
6.24617e-58
1.89249e-58
5.71176e-59
1.71725e-59
5.14315e-60
1.53449e-60
4.56088e-61
1.35048e-61
3.9837e-62
1.17073e-62
3.42767e-63
9.99827e-64
2.90563e-64
8.41299e-65
2.42696e-65
6.97564e-66
1.99766e-66
5.70005e-67
1.62056e-67
4.59075e-68
1.29582e-68
3.6446e-69
1.02143e-69
2.85249e-70
7.93788e-71
2.20118e-71
6.0825e-72
1.6749e-72
4.59606e-73
1.25682e-73
3.425e-74
9.30145e-75
2.51739e-75
6.78993e-76
1.82516e-76
4.88946e-77
1.30542e-77
3.47359e-78
9.21186e-79
2.43479e-79
6.41397e-80
1.68403e-80
4.40689e-81
1.14943e-81
2.98815e-82
7.74281e-83
1.99975e-83
5.148e-84
1.32097e-84
3.37862e-85
8.61363e-86
2.18896e-86
5.54495e-87
1.40014e-87
3.52421e-88
8.84249e-89
2.21164e-89
5.51422e-90
1.37053e-90
3.39574e-91
8.38732e-92
2.06519e-92
5.06931e-93
1.24049e-93
3.02622e-94
7.35988e-95
1.78447e-95
4.31342e-96
1.03947e-96
2.49735e-97
5.98182e-98
1.42848e-98
3.40103e-99
8.07311e-100
1.91061e-100
4.50824e-101
1.06059e-101
2.48773e-102
5.81798e-103
1.35663e-103
3.15406e-104
7.31151e-105
1.68995e-105
3.89468e-106
8.9497e-107
2.05062e-107
4.68495e-108
1.06727e-108
2.42433e-109
5.49116e-110
1.24021e-110
2.7931e-111
6.27252e-112
1.40464e-112
3.13661e-113
6.98441e-114
1.55087e-114
3.43403e-115
7.58256e-116
1.66961e-116
3.66611e-117
8.02765e-118
1.75295e-118
3.81724e-119
8.28958e-120
1.79524e-120
3.87722e-121
8.35087e-122
1.79373e-122
3.8424e-123
8.2086e-124
1.74888e-124
3.71601e-125
7.87454e-126
1.6642e-126
3.5077e-127
7.37359e-128
1.54588e-128
3.23235e-129
6.74076e-130
1.402e-130
2.90832e-131
6.01715e-132
1.24165e-132
2.55545e-133
5.24567e-134
1.07399e-134
2.19316e-135
4.46695e-136
9.07461e-137
1.83875e-137
3.71618e-138
7.49123e-139
1.50624e-139
3.02083e-140
6.04292e-141
1.20576e-141
2.39977e-142
4.76407e-143
9.4338e-144
1.86337e-144
3.67127e-145
7.21509e-146
1.41442e-146
2.76584e-147
5.39502e-148
1.04973e-148
2.03741e-149
3.94463e-150
7.61829e-151
1.4677e-151
2.82063e-152
5.40738e-153
1.0341e-153
1.97277e-154
3.75429e-155
7.12724e-156
1.34977e-156
2.55001e-157
4.80589e-158
9.03559e-159
1.6947e-159
3.1709e-160
5.91875e-161
1.10214e-161
2.04742e-162
3.79436e-163
7.01516e-164
1.29391e-164
2.38091e-165
4.37071e-166
8.00454e-167
1.46251e-167
2.66586e-168
4.84796e-169
8.79554e-170
1.59203e-170
2.87493e-171
5.17956e-172
9.31e-173
1.66955e-173
2.98707e-174
5.33196e-175
9.49574e-176
1.68722e-176
2.99101e-177
5.29018e-178
9.33531e-179
1.6436e-179
2.88719e-180
5.06021e-181
8.84862e-182
1.54383e-182
2.68746e-183
4.66773e-184
8.08895e-185
1.39863e-185
2.4129e-186
4.15341e-187
7.13346e-188
1.22244e-188
2.0902e-189
3.56603e-190
6.07042e-191
1.03108e-191
1.74746e-192
2.95504e-193
4.98614e-194
8.39484e-195
1.41029e-195
2.36404e-196
3.95414e-197
6.59937e-198
1.09903e-198
1.8263e-199
3.02826e-200
5.01043e-201
8.27215e-202
1.36278e-202
2.24026e-203
3.67484e-204
6.01516e-205
9.82486e-206
1.60132e-206
2.60437e-207
4.22671e-208
6.8451e-209
1.10621e-209
1.78391e-210
2.87071e-211
4.6099e-212
7.38717e-213
1.18128e-213
1.88501e-214
3.00168e-215
4.76988e-216
7.56385e-217
1.19694e-217
1.89017e-218
2.97868e-219
4.68433e-220
7.35142e-221
1.15132e-221
1.7994e-222
2.80649e-223
4.36823e-224
6.7851e-225
1.05176e-225
1.627e-226
2.51173e-227
3.86964e-228
5.94956e-229
9.12886e-230
1.39787e-230
2.13618e-231
3.25783e-232
4.95842e-233
7.53151e-234
1.14169e-234
1.72719e-235
2.60772e-236
3.92926e-237
5.90872e-238
8.86765e-239
1.32818e-239
1.98538e-240
2.96187e-241
4.40987e-242
6.55279e-243
9.71779e-244
1.43831e-244
2.12461e-245
3.13222e-246
4.60863e-247
6.76767e-248
9.91872e-249
1.45085e-249
2.11808e-250
3.08613e-251
4.48787e-252
6.51362e-253
9.43543e-254
1.36414e-254
1.96841e-255
2.83488e-256
4.07488e-257
5.84601e-258
8.37082e-259
1.19631e-259
1.70641e-260
2.42938e-261
3.45203e-262
4.89583e-263
6.93026e-264
9.79144e-265
1.38076e-265
1.94342e-266
2.73018e-267
3.82819e-268
5.35767e-269
7.4841e-270
1.04348e-270
1.45216e-271
2.01709e-272
2.79656e-273
3.86999e-274
5.34543e-275
7.36961e-276
1.01414e-276
1.39297e-277
1.90975e-278
2.6134e-279
3.5697e-280
4.86689e-281
6.62323e-282
8.99676e-283
1.21984e-283
1.65089e-284
2.23016e-285
3.00716e-286
4.04744e-287
5.43763e-288
7.29197e-289
9.76086e-290
1.30418e-290
1.7394e-291
2.31564e-292
3.07718e-293
4.08176e-294
5.40451e-295
7.14299e-296
9.42367e-297
1.24101e-297
1.63136e-298
2.14064e-299
2.80387e-300
3.666e-301
4.78465e-302
6.23347e-303
8.10652e-304
1.05236e-304
1.36371e-305
1.76402e-306
2.2778e-307
2.93601e-308
3.77772e-309
4.85213e-310
6.22112e-311
7.96229e-312
1.01728e-312
1.29742e-313
1.65179e-314
2.09927e-315
2.6633e-316
3.37296e-317
4.26425e-318
5.38166e-319
6.78006e-320
8.52757e-321
1.06718e-321
1.28457e-322
1.4822e-323
0
0
0
0
0
0
0
0
0
0
0
0
0
0
0
0
0
0
0
0
0
0
0
0
0
0
0
0
0
0
0
0
0
0
0
0
0
0
0
0
0
0
0
0
0
0
0
0
0
0
0
0
0
0
0
0
0
0
0
0
0
0
0
0
0
0
0
0
0
0
0
0
0
0
0
0
0
0
0
0
0
0
0
0
0
0
0
0
0
0
0
0
0
0
0
0
0
0
0
0
0
0
0
0
0
0
0
0
0
0
0
0
0
0
0
0
0
0
0
0
0
0
0
0
0
0
0
0
0
0
0
0
0
0
0
0
0
0
0
0
0
0
0
0
0
0
0
0
0
0
0
0
0
0
0
0
0
0
0
0
0
0
0
0
0
0
0
0
0
0
0
0
0
0
0
0
0
0
0
0
0
0
0
0
0
0
0
0
0
0
0
0
0
0
0
0
0
0
0
0
0
0
0
0
0
0
0
0
0
0
0
0
0
0
0
0
0
0
0
0
0
0
0
0
0
0
0
0
0
0
0
0
0
0
0
0
0
0
0
0
0
0
0
0
0
0
0
0
0
0
0
0
0
0
0
0
0
0
0
0
0
0
0
0
0
0
0
0
0
0
0
0
0
0
0
0
0
0
0
0
0
0
0
0
0
0
0
0
0
0
0
0
0
0
0
0
0
0
0
0
0
0
0
0
0
0
0
0
0
0
0
0
0
0
0
0
0
0
0
0
0
0
0
0
0
0
0
0
0
0
0
0
0
0
0
0
0
0
0
0
0
0
0
0
0
0
0
0
0
0
0
0
0
0
0
0
0
0
0
0
0
0
0
0
0
0
0
0
0
0
0
0
0
0
0
0
0
0
0
0
0
0
0
0
0
0
0
0
0
0
0
0
0
0
0
0
0
0
0
0
0
0
0
0
0
0
0
0
0
0
0
0
0
0
0
0
0
0
0
0
0
0
0
0
0
0
0
0
0
0
0
0
0
0
0
0
0
0
0
0
0
0
0
0
0
0
0
0
0
0
0
0
0
0
0
0
0
0
0
0
0
0
0
0
0
0
0
0
0
0
0
0
0
0
0
0
0
0
0
0
0
0
0
0
0
0
0
0
0
0
0
0
0
0
0
0
0
0
0
0
0
0
0
0
0
0
0
0
0
0
0
0
0
0
0
0
0
0
0
0
0
0
0
0
0
0
0
0
0
0
0
0
0
0
0
0
0
0
0
0
0
0
0
0
0
0
0
0
0
0
0
0
0
0
0
0
0
0
0
0
0
0
0
0
0
0
0
0
0
0
0
0
0
0
0
0
0
0
0
0
0
0
0
0
0
0
0
0
0
0
0
0
0
0
0
0
0
0
0
0
0
0
0
0
0
0
0
0
0
0
0
0
0
0
0
0
0
0
0
0
0
0
0
0
0
0
0
0
0
0
0
0
0
0
0
0
0
0
0
0
0
0
0
0
0
0
0
0
0
0
0
0
0
0
0
0
0
0
0
0
0
0
0
0
0
0
0
0
0
0
0
0
0
0
0
0
0
0
0
0
0
0
0
0
0
0
0
0
0
0
0
0
0
0
0
0
0
0
0
0
0
0
0
0
0
0
0
0
0
0
0
0
0
0
0
0
0
0
0
0
0
0
0
0
0
0
0
0
0
0
0
0
0
0
0
0
0
0
0
0
0
0
0
0
0
0
0
0
0
0
0
0
0
0
0
0
0
0
0
0
0
0
0
0
0
0
0
0
0
0
0
0
0
0
0
0
0
0
0
0
0
0
0
0
0
0
0
0
0
0
0
0
0
0
0
0
0
0
0
0
0
0
0
0
0
0
0
0
0
0
0
0
0
0
0
0
0
0
0
0
0
0
0
0
0
0
0
0
0
0
0
0
0
0
0
0
0
0
0
0
0
0
0
0
0
0
0
0
0
0
0
0
0
0
0
0
0
0
0
0
0
0
0
0
0
0
0
0
0
0
0
0
0
0
0
0
0
0
0
0
0
0
0
0
0
0
0
0
0
0
0
0
0
0
0
0
0
0
0
0
0
0
0
0
0
0
0
0
0
0
0
0
0
0
0
0
0
0
0
0
0
0
0
0
0
0
0
0.0627869
0.0345542
0.0299575
0.0252772
0.0221394
0.0200073
0.0184501
0.0172647
0.0163166
0.0155327
0.0148676
0.0142916
0.013785
0.0133348
0.0129314
0.0125671
0.0122368
0.0119367
0.0116632
0.0114144
0.0111883
0.0109823
0.0107926
0.010614
0.0104376
0.0102499
0.010032
0.00975888
0.00940083
0.00892541
0.00830238
0.00751188
0.006554
0.00546026
0.00430442
0.00320788
0.00233691
0.00188782
0.00206154
0.00303174
0.00491501
0.00775502
0.0115173
0.0161017
0.0213616
0.0271193
0.0331884
0.0393907
0.0455544
0.0515356
0.0572156
0.0624826
0.0672464
0.0714364
0.0750066
0.0779156
0.0801077
0.081518
0.0820949
0.0818177
0.0807
0.0787851
0.0761372
0.072837
0.0689803
0.0646777
0.0600535
0.05524
0.0503681
0.0455568
0.0409054
0.0364901
0.0323636
0.0285576
0.0250865
0.0219506
0.0191405
0.0166397
0.0144273
0.0124798
0.0107731
0.00928298
0.00798613
0.00686067
0.00588633
0.00504462
0.00431884
0.00369401
0.00315689
0.00269576
0.00230035
0.00196163
0.00167169
0.00142368
0.00121171
0.00103071
0.000876278
0.000744562
0.000632178
0.000536233
0.00045435
0.000384624
0.00032547
0.000275438
0.000233096
0.000197095
0.000166349
0.000140226
0.00011854
0.00010129
8.82296e-05
7.84956e-05
7.05455e-05
6.25053e-05
5.28193e-05
4.09119e-05
2.75315e-05
1.4573e-05
4.41133e-06
-9.99677e-07
-8.99857e-07
3.9386e-06
1.14302e-05
1.88516e-05
2.37067e-05
2.44639e-05
2.09257e-05
1.4144e-05
5.9646e-06
-1.60455e-06
-6.97827e-06
-9.36041e-06
-8.82168e-06
-6.12132e-06
-2.3762e-06
1.2961e-06
4.05486e-06
5.477e-06
5.55642e-06
4.59823e-06
3.06335e-06
1.4173e-06
2.07454e-08
-9.22838e-07
-1.36642e-06
-1.3821e-06
-1.10788e-06
-6.96433e-07
-2.77401e-07
6.24654e-08
2.82831e-07
3.81879e-07
3.82861e-07
3.20138e-07
2.28006e-07
1.33744e-07
5.4784e-08
-9.76788e-10
-3.30137e-08
-4.53665e-08
-4.40341e-08
-3.50361e-08
-2.3267e-08
-1.2049e-08
-3.17894e-09
2.75049e-09
5.93713e-09
6.98627e-09
6.61937e-09
5.49078e-09
4.09942e-09
2.76925e-09
1.67101e-09
8.61874e-10
3.27396e-10
1.6812e-11
-1.31738e-10
-1.75877e-10
-1.61644e-10
-1.21618e-10
-7.62098e-11
-3.63601e-11
-6.48756e-12
1.2946e-11
2.34994e-11
2.74604e-11
2.70907e-11
2.42623e-11
2.03454e-11
1.62378e-11
1.24565e-11
9.24454e-12
6.66766e-12
4.68934e-12
3.22409e-12
2.17136e-12
1.43479e-12
9.3144e-13
5.94724e-13
3.73836e-13
2.31529e-13
1.41382e-13
8.5177e-14
5.06554e-14
2.97522e-14
1.72661e-14
9.90435e-15
5.61788e-15
3.15194e-15
1.74975e-15
9.61366e-16
5.22915e-16
2.81648e-16
1.5025e-16
7.94052e-17
4.15809e-17
2.1579e-17
1.11004e-17
5.6609e-18
2.86248e-18
1.43541e-18
7.1391e-19
3.52214e-19
1.72394e-19
8.37224e-20
4.03476e-20
1.92973e-20
9.16072e-21
4.31677e-21
2.01943e-21
9.37949e-22
4.32566e-22
1.98101e-22
9.00986e-23
4.0699e-23
1.82608e-23
8.13873e-24
3.60355e-24
1.58515e-24
6.928e-25
3.00866e-25
1.29836e-25
5.56802e-26
2.37311e-26
1.00525e-26
4.23246e-27
1.77134e-27
7.36924e-28
3.04777e-28
1.25315e-28
5.12276e-29
2.08215e-29
8.41486e-30
3.38166e-30
1.35139e-30
5.37057e-31
2.1226e-31
8.34343e-32
3.26187e-32
1.26839e-32
4.90594e-33
1.88752e-33
7.22404e-34
2.75044e-34
1.04178e-34
3.9257e-35
1.47178e-35
5.48991e-36
2.03753e-36
7.52439e-37
2.76493e-37
1.01101e-37
3.67874e-38
1.33208e-38
4.80023e-39
1.72151e-39
6.14445e-40
2.18272e-40
7.71733e-41
2.71583e-41
9.51296e-42
3.31681e-42
1.15114e-42
3.97695e-43
1.36772e-43
4.68257e-44
1.59595e-44
5.41521e-45
1.82929e-45
6.15219e-46
2.06002e-46
6.86776e-47
2.27967e-47
7.53447e-48
2.47952e-48
8.12502e-49
2.65115e-49
8.61405e-50
2.7871e-50
8.98006e-51
2.88135e-51
9.20689e-52
2.9298e-52
9.28498e-53
2.93056e-53
9.21199e-54
2.88404e-54
8.99289e-55
2.79292e-55
8.63942e-56
2.66187e-56
8.1691e-57
2.4972e-57
7.60382e-58
2.30631e-58
6.96818e-59
2.09722e-59
6.28778e-60
1.87797e-60
5.58758e-61
1.65619e-61
4.89055e-62
1.4387e-62
4.21652e-63
1.23117e-63
3.58152e-64
1.03803e-64
2.99746e-65
8.62387e-66
2.47208e-66
7.06063e-67
2.00932e-67
5.69752e-68
1.60976e-68
4.53188e-69
1.2713e-69
3.55362e-70
9.89821e-71
2.74733e-71
7.59867e-72
2.09432e-72
5.75222e-73
1.57441e-73
4.29433e-74
1.16728e-74
3.16201e-75
8.53617e-76
2.29658e-76
6.15776e-77
1.64548e-77
4.38225e-78
1.16316e-78
3.077e-79
8.11269e-80
2.13185e-80
5.5835e-81
1.45754e-81
3.79232e-82
9.83474e-83
2.54214e-83
6.54968e-84
1.68201e-84
4.30558e-85
1.09858e-85
2.79404e-86
7.0834e-87
1.79004e-87
4.50919e-88
1.13228e-88
2.83424e-89
7.07209e-90
1.75911e-90
4.36189e-91
1.0782e-91
2.65687e-92
6.52666e-93
1.59833e-93
3.90213e-94
9.4973e-95
2.30444e-95
5.57445e-96
1.34435e-96
3.23225e-97
7.7478e-98
1.85157e-98
4.41155e-99
1.04794e-99
2.4819e-100
5.86045e-101
1.3797e-101
3.23854e-102
7.57927e-103
1.76857e-103
4.11471e-104
9.54509e-105
2.20775e-105
5.09156e-106
1.17081e-106
2.6845e-107
6.13736e-108
1.39909e-108
3.18025e-109
7.20821e-110
1.62911e-110
3.67142e-111
8.25051e-112
1.84882e-112
4.13121e-113
9.20519e-114
2.04534e-114
4.53187e-115
1.00132e-115
2.20625e-116
4.84758e-117
1.06216e-117
2.32085e-118
5.05714e-119
1.09892e-119
2.38138e-120
5.14639e-121
1.10914e-121
2.38388e-122
5.10976e-123
1.09229e-123
2.32861e-124
4.95087e-125
1.04977e-125
2.21995e-126
4.68192e-127
9.8479e-128
2.06587e-128
4.32223e-129
9.01899e-130
1.87697e-130
3.89591e-131
8.06521e-132
1.66525e-132
3.42929e-133
7.04355e-134
1.44293e-134
2.94827e-135
6.00842e-136
1.22131e-136
2.47612e-137
5.00719e-138
1.00995e-138
2.03184e-139
4.07723e-140
8.16076e-141
1.62926e-141
3.24446e-142
6.44455e-143
1.27686e-143
2.52345e-144
4.97454e-145
9.78177e-146
1.91863e-146
3.75387e-147
7.32622e-148
1.42626e-148
2.76973e-149
5.36534e-150
1.03677e-150
1.99845e-151
3.84268e-152
7.37065e-153
1.4103e-153
2.69186e-154
5.12547e-155
9.73541e-156
1.84467e-156
3.48681e-157
6.57483e-158
1.23678e-158
2.32087e-159
4.34474e-160
8.11396e-161
1.51169e-161
2.80964e-162
5.20959e-163
9.63654e-164
1.77831e-164
3.27387e-165
6.01295e-166
1.10176e-166
2.01402e-167
3.67299e-168
6.68273e-169
1.21303e-169
2.19671e-170
3.96881e-171
7.1538e-172
1.28648e-172
2.30815e-173
4.13159e-174
7.37851e-175
1.31467e-175
2.33705e-176
4.14496e-177
7.33462e-178
1.29492e-178
2.28094e-179
4.00864e-180
7.02897e-181
1.22971e-181
2.14648e-182
3.73827e-183
6.49584e-184
1.12621e-184
1.94819e-185
3.36253e-186
5.79068e-187
9.94998e-188
1.70587e-188
2.91812e-189
4.98075e-190
8.4825e-191
1.44142e-191
2.44399e-192
4.13475e-193
6.9798e-194
1.17566e-194
1.97592e-195
3.31365e-196
5.5449e-197
9.25837e-198
1.54252e-198
2.56437e-199
4.25393e-200
7.0414e-201
1.16303e-201
1.91683e-202
3.1524e-203
5.17329e-204
8.47149e-205
1.38428e-205
2.25713e-206
3.67253e-207
5.96276e-208
9.66065e-209
1.56187e-209
2.51977e-210
4.05657e-211
6.51688e-212
1.04473e-212
1.67131e-213
2.66807e-214
4.25037e-215
6.75688e-216
1.07191e-216
1.69693e-217
2.68082e-218
4.22636e-219
6.64912e-220
1.04391e-220
1.63554e-221
2.5572e-222
3.99e-223
6.2128e-224
9.65405e-225
1.49707e-225
2.31677e-226