# vtk DataFile Version 2.0
FlowField
ASCII
DATASET STRUCTURED_GRID
DIMENSIONS 1602 1 52
POINTS 83304 float
0 0 0
0.1 0 0
0.2 0 0
0.3 0 0
0.4 0 0
0.5 0 0
0.6 0 0
0.7 0 0
0.8 0 0
0.9 0 0
1 0 0
1.1 0 0
1.2 0 0
1.3 0 0
1.4 0 0
1.5 0 0
1.6 0 0
1.7 0 0
1.8 0 0
1.9 0 0
2 0 0
2.1 0 0
2.2 0 0
2.3 0 0
2.4 0 0
2.5 0 0
2.6 0 0
2.7 0 0
2.8 0 0
2.9 0 0
3 0 0
3.1 0 0
3.2 0 0
3.3 0 0
3.4 0 0
3.5 0 0
3.6 0 0
3.7 0 0
3.8 0 0
3.9 0 0
4 0 0
4.1 0 0
4.2 0 0
4.3 0 0
4.4 0 0
4.5 0 0
4.6 0 0
4.7 0 0
4.8 0 0
4.9 0 0
5 0 0
5.1 0 0
5.2 0 0
5.3 0 0
5.4 0 0
5.5 0 0
5.6 0 0
5.7 0 0
5.8 0 0
5.9 0 0
6 0 0
6.1 0 0
6.2 0 0
6.3 0 0
6.4 0 0
6.5 0 0
6.6 0 0
6.7 0 0
6.8 0 0
6.9 0 0
7 0 0
7.1 0 0
7.2 0 0
7.3 0 0
7.4 0 0
7.5 0 0
7.6 0 0
7.7 0 0
7.8 0 0
7.9 0 0
8 0 0
8.1 0 0
8.2 0 0
8.3 0 0
8.4 0 0
8.5 0 0
8.6 0 0
8.7 0 0
8.8 0 0
8.9 0 0
9 0 0
9.1 0 0
9.2 0 0
9.3 0 0
9.4 0 0
9.5 0 0
9.6 0 0
9.7 0 0
9.8 0 0
9.9 0 0
10 0 0
10.1 0 0
10.2 0 0
10.3 0 0
10.4 0 0
10.5 0 0
10.6 0 0
10.7 0 0
10.8 0 0
10.9 0 0
11 0 0
11.1 0 0
11.2 0 0
11.3 0 0
11.4 0 0
11.5 0 0
11.6 0 0
11.7 0 0
11.8 0 0
11.9 0 0
12 0 0
12.1 0 0
12.2 0 0
12.3 0 0
12.4 0 0
12.5 0 0
12.6 0 0
12.7 0 0
12.8 0 0
12.9 0 0
13 0 0
13.1 0 0
13.2 0 0
13.3 0 0
13.4 0 0
13.5 0 0
13.6 0 0
13.7 0 0
13.8 0 0
13.9 0 0
14 0 0
14.1 0 0
14.2 0 0
14.3 0 0
14.4 0 0
14.5 0 0
14.6 0 0
14.7 0 0
14.8 0 0
14.9 0 0
15 0 0
15.1 0 0
15.2 0 0
15.3 0 0
15.4 0 0
15.5 0 0
15.6 0 0
15.7 0 0
15.8 0 0
15.9 0 0
16 0 0
16.1 0 0
16.2 0 0
16.3 0 0
16.4 0 0
16.5 0 0
16.6 0 0
16.7 0 0
16.8 0 0
16.9 0 0
17 0 0
17.1 0 0
17.2 0 0
17.3 0 0
17.4 0 0
17.5 0 0
17.6 0 0
17.7 0 0
17.8 0 0
17.9 0 0
18 0 0
18.1 0 0
18.2 0 0
18.3 0 0
18.4 0 0
18.5 0 0
18.6 0 0
18.7 0 0
18.8 0 0
18.9 0 0
19 0 0
19.1 0 0
19.2 0 0
19.3 0 0
19.4 0 0
19.5 0 0
19.6 0 0
19.7 0 0
19.8 0 0
19.9 0 0
20 0 0
20.1 0 0
20.2 0 0
20.3 0 0
20.4 0 0
20.5 0 0
20.6 0 0
20.7 0 0
20.8 0 0
20.9 0 0
21 0 0
21.1 0 0
21.2 0 0
21.3 0 0
21.4 0 0
21.5 0 0
21.6 0 0
21.7 0 0
21.8 0 0
21.9 0 0
22 0 0
22.1 0 0
22.2 0 0
22.3 0 0
22.4 0 0
22.5 0 0
22.6 0 0
22.7 0 0
22.8 0 0
22.9 0 0
23 0 0
23.1 0 0
23.2 0 0
23.3 0 0
23.4 0 0
23.5 0 0
23.6 0 0
23.7 0 0
23.8 0 0
23.9 0 0
24 0 0
24.1 0 0
24.2 0 0
24.3 0 0
24.4 0 0
24.5 0 0
24.6 0 0
24.7 0 0
24.8 0 0
24.9 0 0
25 0 0
25.1 0 0
25.2 0 0
25.3 0 0
25.4 0 0
25.5 0 0
25.6 0 0
25.7 0 0
25.8 0 0
25.9 0 0
26 0 0
26.1 0 0
26.2 0 0
26.3 0 0
26.4 0 0
26.5 0 0
26.6 0 0
26.7 0 0
26.8 0 0
26.9 0 0
27 0 0
27.1 0 0
27.2 0 0
27.3 0 0
27.4 0 0
27.5 0 0
27.6 0 0
27.7 0 0
27.8 0 0
27.9 0 0
28 0 0
28.1 0 0
28.2 0 0
28.3 0 0
28.4 0 0
28.5 0 0
28.6 0 0
28.7 0 0
28.8 0 0
28.9 0 0
29 0 0
29.1 0 0
29.2 0 0
29.3 0 0
29.4 0 0
29.5 0 0
29.6 0 0
29.7 0 0
29.8 0 0
29.9 0 0
30 0 0
30.1 0 0
30.2 0 0
30.3 0 0
30.4 0 0
30.5 0 0
30.6 0 0
30.7 0 0
30.8 0 0
30.9 0 0
31 0 0
31.1 0 0
31.2 0 0
31.3 0 0
31.4 0 0
31.5 0 0
31.6 0 0
31.7 0 0
31.8 0 0
31.9 0 0
32 0 0
32.1 0 0
32.2 0 0
32.3 0 0
32.4 0 0
32.5 0 0
32.6 0 0
32.7 0 0
32.8 0 0
32.9 0 0
33 0 0
33.1 0 0
33.2 0 0
33.3 0 0
33.4 0 0
33.5 0 0
33.6 0 0
33.7 0 0
33.8 0 0
33.9 0 0
34 0 0
34.1 0 0
34.2 0 0
34.3 0 0
34.4 0 0
34.5 0 0
34.6 0 0
34.7 0 0
34.8 0 0
34.9 0 0
35 0 0
35.1 0 0
35.2 0 0
35.3 0 0
35.4 0 0
35.5 0 0
35.6 0 0
35.7 0 0
35.8 0 0
35.9 0 0
36 0 0
36.1 0 0
36.2 0 0
36.3 0 0
36.4 0 0
36.5 0 0
36.6 0 0
36.7 0 0
36.8 0 0
36.9 0 0
37 0 0
37.1 0 0
37.2 0 0
37.3 0 0
37.4 0 0
37.5 0 0
37.6 0 0
37.7 0 0
37.8 0 0
37.9 0 0
38 0 0
38.1 0 0
38.2 0 0
38.3 0 0
38.4 0 0
38.5 0 0
38.6 0 0
38.7 0 0
38.8 0 0
38.9 0 0
39 0 0
39.1 0 0
39.2 0 0
39.3 0 0
39.4 0 0
39.5 0 0
39.6 0 0
39.7 0 0
39.8 0 0
39.9 0 0
40 0 0
40.1 0 0
40.2 0 0
40.3 0 0
40.4 0 0
40.5 0 0
40.6 0 0
40.7 0 0
40.8 0 0
40.9 0 0
41 0 0
41.1 0 0
41.2 0 0
41.3 0 0
41.4 0 0
41.5 0 0
41.6 0 0
41.7 0 0
41.8 0 0
41.9 0 0
42 0 0
42.1 0 0
42.2 0 0
42.3 0 0
42.4 0 0
42.5 0 0
42.6 0 0
42.7 0 0
42.8 0 0
42.9 0 0
43 0 0
43.1 0 0
43.2 0 0
43.3 0 0
43.4 0 0
43.5 0 0
43.6 0 0
43.7 0 0
43.8 0 0
43.9 0 0
44 0 0
44.1 0 0
44.2 0 0
44.3 0 0
44.4 0 0
44.5 0 0
44.6 0 0
44.7 0 0
44.8 0 0
44.9 0 0
45 0 0
45.1 0 0
45.2 0 0
45.3 0 0
45.4 0 0
45.5 0 0
45.6 0 0
45.7 0 0
45.8 0 0
45.9 0 0
46 0 0
46.1 0 0
46.2 0 0
46.3 0 0
46.4 0 0
46.5 0 0
46.6 0 0
46.7 0 0
46.8 0 0
46.9 0 0
47 0 0
47.1 0 0
47.2 0 0
47.3 0 0
47.4 0 0
47.5 0 0
47.6 0 0
47.7 0 0
47.8 0 0
47.9 0 0
48 0 0
48.1 0 0
48.2 0 0
48.3 0 0
48.4 0 0
48.5 0 0
48.6 0 0
48.7 0 0
48.8 0 0
48.9 0 0
49 0 0
49.1 0 0
49.2 0 0
49.3 0 0
49.4 0 0
49.5 0 0
49.6 0 0
49.7 0 0
49.8 0 0
49.9 0 0
50 0 0
50.1 0 0
50.2 0 0
50.3 0 0
50.4 0 0
50.5 0 0
50.6 0 0
50.7 0 0
50.8 0 0
50.9 0 0
51 0 0
51.1 0 0
51.2 0 0
51.3 0 0
51.4 0 0
51.5 0 0
51.6 0 0
51.7 0 0
51.8 0 0
51.9 0 0
52 0 0
52.1 0 0
52.2 0 0
52.3 0 0
52.4 0 0
52.5 0 0
52.6 0 0
52.7 0 0
52.8 0 0
52.9 0 0
53 0 0
53.1 0 0
53.2 0 0
53.3 0 0
53.4 0 0
53.5 0 0
53.6 0 0
53.7 0 0
53.8 0 0
53.9 0 0
54 0 0
54.1 0 0
54.2 0 0
54.3 0 0
54.4 0 0
54.5 0 0
54.6 0 0
54.7 0 0
54.8 0 0
54.9 0 0
55 0 0
55.1 0 0
55.2 0 0
55.3 0 0
55.4 0 0
55.5 0 0
55.6 0 0
55.7 0 0
55.8 0 0
55.9 0 0
56 0 0
56.1 0 0
56.2 0 0
56.3 0 0
56.4 0 0
56.5 0 0
56.6 0 0
56.7 0 0
56.8 0 0
56.9 0 0
57 0 0
57.1 0 0
57.2 0 0
57.3 0 0
57.4 0 0
57.5 0 0
57.6 0 0
57.7 0 0
57.8 0 0
57.9 0 0
58 0 0
58.1 0 0
58.2 0 0
58.3 0 0
58.4 0 0
58.5 0 0
58.6 0 0
58.7 0 0
58.8 0 0
58.9 0 0
59 0 0
59.1 0 0
59.2 0 0
59.3 0 0
59.4 0 0
59.5 0 0
59.6 0 0
59.7 0 0
59.8 0 0
59.9 0 0
60 0 0
60.1 0 0
60.2 0 0
60.3 0 0
60.4 0 0
60.5 0 0
60.6 0 0
60.7 0 0
60.8 0 0
60.9 0 0
61 0 0
61.1 0 0
61.2 0 0
61.3 0 0
61.4 0 0
61.5 0 0
61.6 0 0
61.7 0 0
61.8 0 0
61.9 0 0
62 0 0
62.1 0 0
62.2 0 0
62.3 0 0
62.4 0 0
62.5 0 0
62.6 0 0
62.7 0 0
62.8 0 0
62.9 0 0
63 0 0
63.1 0 0
63.2 0 0
63.3 0 0
63.4 0 0
63.5 0 0
63.6 0 0
63.7 0 0
63.8 0 0
63.9 0 0
64 0 0
64.1 0 0
64.2 0 0
64.3 0 0
64.4 0 0
64.5 0 0
64.6 0 0
64.7 0 0
64.8 0 0
64.9 0 0
65 0 0
65.1 0 0
65.2 0 0
65.3 0 0
65.4 0 0
65.5 0 0
65.6 0 0
65.7 0 0
65.8 0 0
65.9 0 0
66 0 0
66.1 0 0
66.2 0 0
66.3 0 0
66.4 0 0
66.5 0 0
66.6 0 0
66.7 0 0
66.8 0 0
66.9 0 0
67 0 0
67.1 0 0
67.2 0 0
67.3 0 0
67.4 0 0
67.5 0 0
67.6 0 0
67.7 0 0
67.8 0 0
67.9 0 0
68 0 0
68.1 0 0
68.2 0 0
68.3 0 0
68.4 0 0
68.5 0 0
68.6 0 0
68.7 0 0
68.8 0 0
68.9 0 0
69 0 0
69.1 0 0
69.2 0 0
69.3 0 0
69.4 0 0
69.5 0 0
69.6 0 0
69.7 0 0
69.8 0 0
69.9 0 0
70 0 0
70.1 0 0
70.2 0 0
70.3 0 0
70.4 0 0
70.5 0 0
70.6 0 0
70.7 0 0
70.8 0 0
70.9 0 0
71 0 0
71.1 0 0
71.2 0 0
71.3 0 0
71.4 0 0
71.5 0 0
71.6 0 0
71.7 0 0
71.8 0 0
71.9 0 0
72 0 0
72.1 0 0
72.2 0 0
72.3 0 0
72.4 0 0
72.5 0 0
72.6 0 0
72.7 0 0
72.8 0 0
72.9 0 0
73 0 0
73.1 0 0
73.2 0 0
73.3 0 0
73.4 0 0
73.5 0 0
73.6 0 0
73.7 0 0
73.8 0 0
73.9 0 0
74 0 0
74.1 0 0
74.2 0 0
74.3 0 0
74.4 0 0
74.5 0 0
74.6 0 0
74.7 0 0
74.8 0 0
74.9 0 0
75 0 0
75.1 0 0
75.2 0 0
75.3 0 0
75.4 0 0
75.5 0 0
75.6 0 0
75.7 0 0
75.8 0 0
75.9 0 0
76 0 0
76.1 0 0
76.2 0 0
76.3 0 0
76.4 0 0
76.5 0 0
76.6 0 0
76.7 0 0
76.8 0 0
76.9 0 0
77 0 0
77.1 0 0
77.2 0 0
77.3 0 0
77.4 0 0
77.5 0 0
77.6 0 0
77.7 0 0
77.8 0 0
77.9 0 0
78 0 0
78.1 0 0
78.2 0 0
78.3 0 0
78.4 0 0
78.5 0 0
78.6 0 0
78.7 0 0
78.8 0 0
78.9 0 0
79 0 0
79.1 0 0
79.2 0 0
79.3 0 0
79.4 0 0
79.5 0 0
79.6 0 0
79.7 0 0
79.8 0 0
79.9 0 0
80 0 0
80.1 0 0
80.2 0 0
80.3 0 0
80.4 0 0
80.5 0 0
80.6 0 0
80.7 0 0
80.8 0 0
80.9 0 0
81 0 0
81.1 0 0
81.2 0 0
81.3 0 0
81.4 0 0
81.5 0 0
81.6 0 0
81.7 0 0
81.8 0 0
81.9 0 0
82 0 0
82.1 0 0
82.2 0 0
82.3 0 0
82.4 0 0
82.5 0 0
82.6 0 0
82.7 0 0
82.8 0 0
82.9 0 0
83 0 0
83.1 0 0
83.2 0 0
83.3 0 0
83.4 0 0
83.5 0 0
83.6 0 0
83.7 0 0
83.8 0 0
83.9 0 0
84 0 0
84.1 0 0
84.2 0 0
84.3 0 0
84.4 0 0
84.5 0 0
84.6 0 0
84.7 0 0
84.8 0 0
84.9 0 0
85 0 0
85.1 0 0
85.2 0 0
85.3 0 0
85.4 0 0
85.5 0 0
85.6 0 0
85.7 0 0
85.8 0 0
85.9 0 0
86 0 0
86.1 0 0
86.2 0 0
86.3 0 0
86.4 0 0
86.5 0 0
86.6 0 0
86.7 0 0
86.8 0 0
86.9 0 0
87 0 0
87.1 0 0
87.2 0 0
87.3 0 0
87.4 0 0
87.5 0 0
87.6 0 0
87.7 0 0
87.8 0 0
87.9 0 0
88 0 0
88.1 0 0
88.2 0 0
88.3 0 0
88.4 0 0
88.5 0 0
88.6 0 0
88.7 0 0
88.8 0 0
88.9 0 0
89 0 0
89.1 0 0
89.2 0 0
89.3 0 0
89.4 0 0
89.5 0 0
89.6 0 0
89.7 0 0
89.8 0 0
89.9 0 0
90 0 0
90.1 0 0
90.2 0 0
90.3 0 0
90.4 0 0
90.5 0 0
90.6 0 0
90.7 0 0
90.8 0 0
90.9 0 0
91 0 0
91.1 0 0
91.2 0 0
91.3 0 0
91.4 0 0
91.5 0 0
91.6 0 0
91.7 0 0
91.8 0 0
91.9 0 0
92 0 0
92.1 0 0
92.2 0 0
92.3 0 0
92.4 0 0
92.5 0 0
92.6 0 0
92.7 0 0
92.8 0 0
92.9 0 0
93 0 0
93.1 0 0
93.2 0 0
93.3 0 0
93.4 0 0
93.5 0 0
93.6 0 0
93.7 0 0
93.8 0 0
93.9 0 0
94 0 0
94.1 0 0
94.2 0 0
94.3 0 0
94.4 0 0
94.5 0 0
94.6 0 0
94.7 0 0
94.8 0 0
94.9 0 0
95 0 0
95.1 0 0
95.2 0 0
95.3 0 0
95.4 0 0
95.5 0 0
95.6 0 0
95.7 0 0
95.8 0 0
95.9 0 0
96 0 0
96.1 0 0
96.2 0 0
96.3 0 0
96.4 0 0
96.5 0 0
96.6 0 0
96.7 0 0
96.8 0 0
96.9 0 0
97 0 0
97.1 0 0
97.2 0 0
97.3 0 0
97.4 0 0
97.5 0 0
97.6 0 0
97.7 0 0
97.8 0 0
97.9 0 0
98 0 0
98.1 0 0
98.2 0 0
98.3 0 0
98.4 0 0
98.5 0 0
98.6 0 0
98.7 0 0
98.8 0 0
98.9 0 0
99 0 0
99.1 0 0
99.2 0 0
99.3 0 0
99.4 0 0
99.5 0 0
99.6 0 0
99.7 0 0
99.8 0 0
99.9 0 0
100 0 0
100.1 0 0
100.2 0 0
100.3 0 0
100.4 0 0
100.5 0 0
100.6 0 0
100.7 0 0
100.8 0 0
100.9 0 0
101 0 0
101.1 0 0
101.2 0 0
101.3 0 0
101.4 0 0
101.5 0 0
101.6 0 0
101.7 0 0
101.8 0 0
101.9 0 0
102 0 0
102.1 0 0
102.2 0 0
102.3 0 0
102.4 0 0
102.5 0 0
102.6 0 0
102.7 0 0
102.8 0 0
102.9 0 0
103 0 0
103.1 0 0
103.2 0 0
103.3 0 0
103.4 0 0
103.5 0 0
103.6 0 0
103.7 0 0
103.8 0 0
103.9 0 0
104 0 0
104.1 0 0
104.2 0 0
104.3 0 0
104.4 0 0
104.5 0 0
104.6 0 0
104.7 0 0
104.8 0 0
104.9 0 0
105 0 0
105.1 0 0
105.2 0 0
105.3 0 0
105.4 0 0
105.5 0 0
105.6 0 0
105.7 0 0
105.8 0 0
105.9 0 0
106 0 0
106.1 0 0
106.2 0 0
106.3 0 0
106.4 0 0
106.5 0 0
106.6 0 0
106.7 0 0
106.8 0 0
106.9 0 0
107 0 0
107.1 0 0
107.2 0 0
107.3 0 0
107.4 0 0
107.5 0 0
107.6 0 0
107.7 0 0
107.8 0 0
107.9 0 0
108 0 0
108.1 0 0
108.2 0 0
108.3 0 0
108.4 0 0
108.5 0 0
108.6 0 0
108.7 0 0
108.8 0 0
108.9 0 0
109 0 0
109.1 0 0
109.2 0 0
109.3 0 0
109.4 0 0
109.5 0 0
109.6 0 0
109.7 0 0
109.8 0 0
109.9 0 0
110 0 0
110.1 0 0
110.2 0 0
110.3 0 0
110.4 0 0
110.5 0 0
110.6 0 0
110.7 0 0
110.8 0 0
110.9 0 0
111 0 0
111.1 0 0
111.2 0 0
111.3 0 0
111.4 0 0
111.5 0 0
111.6 0 0
111.7 0 0
111.8 0 0
111.9 0 0
112 0 0
[...]
POINT_DATA 83304

SCALARS pressure float 1
LOOKUP_TABLE default
0
0
0
0
0
0
0
0
0
0
0
0
0
0
0
0
0
0
0
0
0
0
0
0
0
0
0
0
0
0
0
0
0
0
0
0
0
0
0
0
0
0
0
0
0
0
0
0
0
0
0
0
0
0
0
0
0
0
0
0
0
0
0
0
0
0
0
0
0
0
0
0
0
0
0
0
0
0
0
0
0
0
0
0
0
0
0
0
0
0
0
0
0
0
0
0
0
0
0
0
0
0
0
0
0
0
0
0
0
0
0
0
0
0
0
0
0
0
0
0
0
0
0
0
0
0
0
0
0
0
0
0
0
0
0
0
0
0
0
0
0
0
0
0
0
0
0
0
0
0
0
0
0
0
0
0
0
0
0
0
0
0
0
0
0
0
0
0
0
0
0
0
0
0
0
0
0
0
0
0
0
0
0
0
0
0
0
0
0
0
0
0
0
0
0
0
0
0
0
0
0
0
0
0
0
0
0
0
0
0
0
0
0
0
0
0
0
0
0
0
0
0
0
0
0
0
0
0
0
0
0
0
0
0
0
0
0
0
0
0
0
0
0
0
0
0
0
0
0
0
0
0
0
0
0
0
0
0
0
0
0
0
0
0
0
0
0
0
0
0
0
0
0
0
0
0
0
0
0
0
0
0
0
0
0
0
0
0
0
0
0
0
0
0
0
0
0
0
0
0
0
0
0
0
0
0
0
0
0
0
0
0
0
0
0
0
0
0
0
0
0
0
0
0
0
0
0
0
0
0
0
0
0
0
0
0
0
0
0
0
0
0
0
0
0
0
0
0
0
0
0
0
0
0
0
0
0
0
0
0
0
0
0
0
0
0
0
0
0
0
0
0
0
0
0
0
0
0
0
0
0
0
0
0
0
0
0
0
0
0
0
0
0
0
0
0
0
0
0
0
0
0
0
0
0
0
0
0
0
0
0
0
0
0
0
0
0
0
0
0
0
0
0
0
0
0
0
0
0
0
0
0
0
0
0
0
0
0
0
0
0
0
0
0
0
0
0
0
0
0
0
0
0
0
0
0
0
0
0
0
0
0
0
0
0
0
0
0
0
0
0
0
0
0
0
0
0
0
0
0
0
0
0
0
0
0
0
0
0
0
0
0
0
0
0
0
0
0
0
0
0
0
0
0
0
0
0
0
0
0
0
0
0
0
0
0
0
0
0
0
0
0
0
0
0
0
0
0
0
0
0
0
0
0
0
0
0
0
0
0
0
0
0
0
0
0
0
0
0
0
0
0
0
0
0
0
0
0
0
0
0
0
0
0
0
0
0
0
0
0
0
0
0
0
0
0
0
0
0
0
0
0
0
0
0
0
0
0
0
0
0
0
0
0
0
0
0
0
0
0
0
0
0
0
0
0
0
0
0
0
0
0
0
0
0
0
0
0
0
0
0
0
0
0
0
0
0
0
0
0
0
0
0
0
0
0
0
0
0
0
0
0
0
0
0
0
0
0
0
0
0
0
0
0
0
0
0
0
0
0
0
0
0
0
0
0
0
0
0
0
0
0
0
0
0
0
0
0
0
0
0
0
0
0
0
0
0
0
0
0
0
0
0
0
0
0
0
0
0
0
0
0
0
0
0
0
0
0
0
0
0
0
0
0
0
0
0
0
0
0
0
0
0
0
0
0
0
0
0
0
0
0
0
0
0
0
0
0
0
0
0
0
0
0
0
0
0
0
0
0
0
0
0
0
0
0
0
0
0
0
0
0
0
0
0
0
0
0
0
0
0
0
0
0
0
0
0
0
0
0
0
0
0
0
0
0
0
0
0
0
0
0
0
0
0
0
0
0
0
0
0
0
0
0
0
0
0
0
0
0
0
0
0
0
0
0
0
0
0
0
0
0
0
0
0
0
0
0
0
0
0
0
0
0
0
0
0
0
0
0
0
0
0
0
0
0
0
0
0
0
0
0
0
0
0
0
0
0
0
0
0
0
0
0
0
0
0
0
0
0
0
0
0
0
0
0
0
0
0
0
0
0
0
0
0
0
0
0
0
0
0
0
0
0
0
0
0
0
0
0
0
0
0
0
0
0
0
0
0
0
0
0
0
0
0
0
0
0
0
0
0
0
0
0
0
0
0
0
0
0
0
0
0
0
0
0
0
0
0
0
0
0
0
0
0
0
0
0
0
0
0
0
0
0
0
0
0
0
0
0
0
0
0
0
0
0
0
0
0
0
0
0
0
0
0
0
0
0
0
0
0
0
0
0
0
0
0
0
0
0
0
0
0
0
0
0
0
0
0
0
0
0
0
0
0
0
0
0
0
0
0
0
0
0
0
0
0
0
0
0
0
0
0
0
0
0
0
0
0
0
0
0
0
0
0
0
0
0
0
0
0
0
0
0
0
0
0
0
0
0
0
0
0
0
0
0
0
0
0
0
0
0
0
0
0
0
0
0
0
0
0
0
0
0
0
0
0
0
0
0
0
0
0
0
0
0
0
0
0
0
0
0
0
0
0
0
0
0
0
0
0
0
0
0
0
0
0
0
0
0
0
0
0
0
0
0
0
0
0
0
0
0
0
0
0
0
0
0
0
0
0
0
0
0
0
0
0
0
0
0
0
0
0
0
0
0
0
0
0
0
0
0
0
0
0
0
0
0
0
0
0
0
0
0
0
0
0
0
0
0
0
0
0
0
0
0
0
0
0
0
0
0
0
0
0
0
0
0
0
0
0
0
0
0
0
0
0
0
0
0
0
0
0
0
0
0
0
0
0
0
0
0
0
0
0
0
0
0
0
0
0
0
0
0
0
0
0
0
0
0
0
0
0
0
0
0
0
0
0
0
0
0
0
0
0
0
0
0
0
0
0
0
0
0
0
0
0
0
0
0
0
0
0
0
0
0
0
0
0
0
0
0
0
0
0
0
0
0
0
0
0
0
0
0
0
0
0
0
0
0
0
0
0
0
0
0
0
0
0
0
0
0
0
0
0
0
0
0
0
0
0
0
0
0
0
0
0
0
0
0
0
0
0
0
0
0
0
0
0
0
0
0
0
0
0
0
0
0
0
0
0
0
0
0
0
0
0
0
0
0
0
0
0
0
0
0
0
0
0
0
0
0
0
0
0
0
0
0
0
0
0
0
0
0
0
0
0
0
0
0
0
0
0
0
0
0
0
0
0
0
0
0
0
0
0
0
0
0
0
0
0
0
0
0
0
0
0
0
0
0
0
0
0
0
0
0
0
0
0
0
0
0
0
0
0
0
0
0
0
0
0
0
0
0
0
0
0
0
0
0
0
0
0
0
0
0
0
0
0
0
0
0
0
0
0
0
0
0
0
0
0
0
0
0
0
0
0
0
0
0
0
0
0
0
0
0
0
0
0
0
0
0
0
0
0
0
0
0
0
0
0
0
0
0
0
0
0
0
0
0
0
0
0
0
0
0
0
0
0
0
0
0
0
0
0
0
0
0
0
0
0
0
0
0
0
0
0
0
0
0
0
0
0
0
0
0
0
0
0
0
0
0
0
0
0
0
0
0
0
0
0
0
0
0
0
0
0
0
0
0
0
0
0
0
0
0
0
0
0
0
0
0
0
0
0
0
0
0
0
0
0
0
0
0
0
0
0
0
0
0
0
0
0
0
0
0
0
0
0
0
0
0
0
0.0776415
0.052903
0.0436505
0.0357426
0.03048
0.0271088
0.0248019
0.023116
0.0218008
0.0207277
0.0198235
0.0190436
0.0183596
0.0177519
0.0172066
0.0167134
0.0162643
0.0158532
0.0154749
0.0151254
0.0148012
0.0144993
0.0142174
0.0139533
0.0137051
0.0134714
0.0132506
0.0130416
0.0128434
0.0126549
0.0124753
0.0123039
0.0121401
0.0119833
0.0118328
0.0116884
0.0115494
0.0114156
0.0112866
0.0111621
0.0110418
0.0109254
0.0108128
0.0107037
0.0105979
0.0104952
0.0103955
0.0102987
0.0102045
0.0101129
0.0100238
0.00993707
0.00985257
0.00977024
0.00969001
0.00961179
0.00953551
0.00946111
0.00938852
0.00931768
0.00924852
0.00918099
0.00911501
0.00905054
0.0089875
0.00892584
0.0088655
0.00880644
0.00874863
0.00869203
0.00863668
0.0085826
0.00852986
0.0084786
0.00842895
0.00838111
0.0083353
0.00829173
0.00825058
0.00821198
0.00817595
0.00814233
0.00811076
0.00808062
0.008051
0.00802069
0.00798825
0.00795201
0.0079103
0.00786156
0.00780461
0.00773896
0.00766508
0.00758475
0.00750129
0.00741974
0.00734683
0.00729082
0.00726099
0.00726696
0.00731761
0.00741984
0.00757711
0.00778793
0.00804437
0.00833078
0.00862298
0.00888788
0.00908391
0.00916257
0.00907083
0.0087553
0.00816829
0.00727534
0.0060629
0.00454764
0.00278796
0.000892068
-0.000979073
-0.00261983
-0.0038008
-0.0042955
-0.003906
-0.00248579
4.53082e-05
0.00370003
0.00842647
0.0141194
0.0206329
0.0277938
0.0354192
0.0433176
0.0512821
0.0591123
0.0666326
0.0736546
0.0799474
0.0852876
0.0895419
0.0926797
0.0947106
0.0956337
0.0954425
0.0941597
0.0918561
0.0886471
0.0846775
0.080107
0.0751001
0.0698168
0.064406
0.0589983
0.0537027
0.0486052
0.0437688
0.0392362
0.0350325
0.0311685
0.027644
0.0244502
0.0215726
0.0189925
0.0166891
0.0146404
0.0128239
0.011218
0.00980168
0.00855526
0.00746043
0.00650033
0.00565961
0.00492437
0.00428209
0.0037216
0.00323289
0.00280713
0.00243646
0.00211395
0.00183352
0.00158978
0.00137805
0.00119419
0.0010346
0.000896125
0.000776006
0.000671844
0.000581544
0.000503282
0.000435469
0.000376725
0.000325848
0.000281794
0.000243655
0.000210643
0.000182075
0.000157357
0.000135974
0.000117478
0.000101484
8.76537e-05
7.56974e-05
6.53626e-05
5.64307e-05
4.87125e-05
4.2044e-05
3.62833e-05
3.13076e-05
2.70105e-05
2.33e-05
2.00964e-05
1.7331e-05
1.49441e-05
1.28841e-05
1.11066e-05
9.57309e-06
8.25017e-06
7.10911e-06
6.12504e-06
5.27649e-06
4.54488e-06
3.91418e-06
3.37056e-06
2.90204e-06
2.49832e-06
2.15047e-06
1.8508e-06
1.59268e-06
1.37037e-06
1.17893e-06
1.0141e-06
8.72189e-07
7.50038e-07
6.44905e-07
5.54433e-07
4.76587e-07
4.09614e-07
3.52003e-07
3.02453e-07
2.59841e-07
2.23201e-07
1.917e-07
1.64622e-07
1.41348e-07
1.21347e-07
1.04161e-07
8.93961e-08
7.67127e-08
6.58191e-08
5.6464e-08
4.84313e-08
4.1535e-08
3.56153e-08
3.05346e-08
2.61747e-08
2.24338e-08
1.92246e-08
1.64718e-08
1.4111e-08
1.20866e-08
1.03509e-08
8.8631e-09
7.58786e-09
6.49503e-09
5.55865e-09
4.75646e-09
4.06932e-09
3.48083e-09
2.97691e-09
2.54547e-09
2.17616e-09
1.86007e-09
1.5896e-09
1.3582e-09
1.16027e-09
9.91038e-10
8.46392e-10
7.22817e-10
6.17287e-10
5.27185e-10
4.50248e-10
3.84521e-10
3.28329e-10
2.80246e-10
2.39066e-10
2.03763e-10
1.73453e-10
1.47356e-10
1.24794e-10
1.05207e-10
8.81942e-11
7.35547e-11
6.12842e-11
5.15126e-11
4.43691e-11
3.98047e-11
3.7429e-11
3.64318e-11
3.56483e-11
3.37839e-11
2.97567e-11
2.30611e-11
1.40286e-11
3.87332e-12
-5.53283e-12
-1.21261e-11
-1.42421e-11
-1.11609e-11
-3.43078e-12
7.15172e-12
1.79279e-11
2.60398e-11
2.91895e-11
2.62792e-11
1.77409e-11
5.455e-12
-7.72504e-12
-1.87116e-11
-2.49793e-11
-2.51993e-11
-1.95456e-11
-9.59877e-12
2.10722e-12
1.276e-11
1.99743e-11
2.23434e-11
1.9705e-11
1.30768e-11
4.3071e-12
-4.4444e-12
-1.12487e-11
-1.48344e-11
-1.48073e-11
-1.16342e-11
-6.42421e-12
-5.87723e-13
4.52744e-12
7.9325e-12
9.16609e-12
8.31461e-12
5.90355e-12
2.70672e-12
-4.67996e-13
-2.96269e-12
-4.38609e-12
-4.64872e-12
-3.92412e-12
-2.55932e-12
-9.65054e-13
4.85466e-13
1.52826e-12
2.04115e-12
2.03846e-12
1.63741e-12
1.01002e-12
3.34427e-13
-2.43669e-13
-6.33475e-13
-8.04467e-13
-7.77751e-13
-6.08748e-13
-3.67117e-13
-1.18876e-13
8.60334e-14
2.1957e-13
2.75347e-13
2.64001e-13
2.0637e-13
1.26481e-13
4.5878e-14
-1.99383e-14
-6.28194e-14
-8.14245e-14
-7.94718e-14
-6.35022e-14
-4.07538e-14
-1.75443e-14
1.66873e-15
1.45706e-14
2.07635e-14
2.12369e-14
1.77359e-14
1.21859e-14
6.26805e-15
1.18099e-15
-2.42658e-15
-4.39518e-15
-4.92064e-15
-4.39751e-15
-3.27787e-15
-1.96752e-15
-7.667e-16
1.48788e-16
7.1643e-16
9.58581e-16
9.48257e-16
7.77695e-16
5.34623e-16
2.87942e-16
8.20856e-17
-6.20547e-17
-1.42221e-16
-1.6829e-16
-1.55979e-16
-1.21843e-16
-8.00116e-17
-4.05926e-17
-9.41526e-18
1.13609e-17
2.22127e-17
2.51476e-17
2.2756e-17
1.75294e-17
1.14648e-17
5.91274e-18
1.59955e-18
-1.24917e-18
-2.74674e-18
-3.18939e-18
-2.93137e-18
-2.30075e-18
-1.55409e-18
-8.62076e-19
-3.15909e-19
5.52616e-20
2.63487e-19
3.42801e-19
3.34293e-19
2.76254e-19
1.98956e-19
1.23002e-19
6.00121e-20
1.45349e-20
-1.36772e-20
-2.75632e-20
-3.11084e-20
-2.82382e-20
-2.22016e-20
-1.53371e-20
-9.09092e-21
-4.17444e-21
-7.73341e-22
1.2498e-21
2.18991e-21
2.38187e-21
2.12904e-21
1.66892e-21
1.16489e-21
7.13669e-22
3.60129e-22
1.13707e-22
-3.69763e-23
-1.12849e-22
-1.36749e-22
-1.28993e-22
-1.0538e-22
-7.68271e-23
-4.99422e-23
-2.80068e-23
-1.20199e-23
-1.61084e-24
4.26247e-24
6.83868e-24
7.2715e-24
6.49409e-24
5.18158e-24
3.77099e-24
2.50819e-24
1.50164e-24
7.71477e-25
2.88486e-25
1.93047e-27
-1.42746e-25
-1.9413e-25
-1.90647e-25
-1.59898e-25
-1.19907e-25
-8.11774e-26
-4.88462e-26
-2.45748e-26
-8.01947e-27
2.12748e-27
7.46935e-27
9.52413e-27
9.54501e-27
8.46876e-27
6.93605e-27
5.34479e-27
3.91232e-27
2.7328e-27
1.82393e-27
1.16141e-27
7.02409e-28
4.00044e-28
2.1133e-28
1.00724e-28
4.09354e-29
1.2265e-29
1.28238e-30
-6.48059e-31
1.27949e-30
4.19831e-30
6.72143e-30
8.33699e-30
9.00279e-30
8.8912e-30
8.24083e-30
7.27895e-30
6.18809e-30
5.09786e-30
4.08963e-30
3.20648e-30
2.46396e-30
1.85975e-30
1.38121e-30
1.01082e-30
7.2982e-31
5.20383e-31
3.66748e-31
2.55663e-31
1.76401e-31
1.20533e-31
8.16019e-32
5.47608e-32
3.64405e-32
2.40545e-32
1.57558e-32
1.02433e-32
6.61165e-33
4.23791e-33
2.69812e-33
1.70657e-33
1.07256e-33
6.69924e-34
4.15919e-34
2.56705e-34
1.5753e-34
9.61283e-35
5.83379e-35
3.52138e-35
2.11438e-35
1.26301e-35
7.5063e-36
4.43894e-36
2.61219e-36
1.52981e-36
8.91691e-37
5.17327e-37
2.98759e-37
1.71756e-37
9.8303e-38
5.6016e-38
3.17814e-38
1.79546e-38
1.01006e-38
5.65851e-39
3.15696e-39
1.75416e-39
9.70779e-40
5.35112e-40
2.93806e-40
1.60689e-40
8.75466e-41
4.75158e-41
2.56921e-41
1.38401e-41
7.42802e-42
3.97206e-42
2.11633e-42
1.12354e-42
5.9436e-43
3.13311e-43
1.64581e-43
8.61547e-44
4.49451e-44
2.33671e-44
1.21075e-44
6.2524e-45
3.21804e-45
1.65082e-45
8.44077e-46
4.3018e-46
2.18531e-46
1.10658e-46
5.58555e-47
2.81045e-47
1.40968e-47
7.04868e-48
3.51357e-48
1.74603e-48
8.65017e-49
4.27245e-49
2.10386e-49
1.03288e-49
5.05581e-50
2.46741e-50
1.20064e-50
5.82517e-51
2.81799e-51
1.35929e-51
6.53785e-52
3.13555e-52
1.49953e-52
7.15097e-53
3.40058e-53
1.61259e-53
7.62577e-54
3.59617e-54
1.69121e-54
7.93169e-55
3.70978e-55
1.73042e-55
8.0497e-56
3.73457e-56
1.72799e-56
7.97414e-57
3.67009e-57
1.68471e-57
7.71316e-58
3.52214e-58
1.60417e-58
7.28737e-59
3.30196e-59
1.49231e-59
6.72727e-60
3.02492e-60
1.35672e-60
6.06976e-61
2.70872e-61
1.20579e-61
5.35424e-62
2.37164e-62
1.04792e-62
4.61894e-63
2.03092e-63
8.90811e-64
3.89784e-64
1.70143e-64
7.40895e-65
3.21854e-65
1.39484e-65
6.03054e-66
2.60111e-66
1.11927e-66
4.80499e-67
2.05793e-67
8.79337e-68
3.74861e-68
1.59433e-68
6.76527e-69
2.86413e-69
1.20977e-69
5.09829e-70
2.14366e-70
8.99298e-71
3.76418e-71
1.57202e-71
6.55047e-72
2.72342e-72
1.12977e-72
4.67629e-73
1.93131e-73
7.95872e-74
3.27251e-74
1.34266e-74
5.49672e-75
2.24541e-75
9.15263e-76
3.72269e-76
1.51088e-76
6.11889e-77
2.47277e-77
9.97168e-78
4.01262e-78
1.61126e-78
6.45634e-79
2.58161e-79
1.03011e-79
4.1017e-80
1.62981e-80
6.46259e-81
2.55726e-81
1.00982e-81
3.97937e-82
1.56492e-82
6.14157e-83
2.40535e-83
9.40135e-84
3.66707e-84
1.42747e-84
5.54544e-85
2.14996e-85
8.3186e-86
3.21218e-86
1.23788e-86
4.76097e-87
1.82745e-87
7.00061e-88
2.6765e-88
1.02127e-88
3.88921e-89
1.47819e-89
5.60724e-90
2.12286e-90
8.02134e-91
3.02504e-91
1.13861e-91
4.27739e-92
1.60379e-92
6.00181e-93
2.24174e-93
8.35716e-94
3.1096e-94
1.15485e-94
4.28077e-95
1.58379e-95
5.84864e-96
2.15573e-96
7.93085e-97
2.91227e-97
1.06741e-97
3.90504e-98
1.42597e-98
5.19746e-99
1.8909e-99
6.86664e-100
2.48898e-100
9.00538e-101
3.25227e-101
1.17241e-101
4.2187e-102
1.51527e-102
5.43265e-103
1.94424e-103
6.94548e-104
2.4767e-104
8.81584e-105
3.13239e-105
1.11099e-105
3.93343e-106
1.39014e-106
4.90428e-107
1.72711e-107
6.07155e-108
2.13065e-108
7.46379e-109
2.61002e-109
9.11105e-110
3.17492e-110
1.10443e-110
3.83522e-111
1.3295e-111
4.60078e-112
1.58937e-112
5.48109e-113
1.88696e-113
6.48504e-114
2.22493e-114
7.62042e-115
2.60555e-115
8.89365e-116
3.03056e-116
1.03093e-116
3.50106e-117
1.18696e-117
4.01736e-118
1.35742e-118
4.57889e-119
1.54198e-119
5.18406e-120
1.73995e-120
5.83017e-121
1.95031e-121
6.51338e-122
2.17165e-122
7.22864e-123
2.40219e-123
7.96974e-124
2.63978e-124
8.7293e-125
2.88192e-125
9.49894e-126
3.1258e-126
1.02693e-126
3.36835e-127
1.10304e-127
3.60629e-128
1.17715e-128
3.83621e-129
1.24818e-129
4.05465e-130
1.31503e-130
4.25818e-131
1.37664e-131
4.44351e-132
1.43199e-132
4.60753e-133
1.48016e-133
4.74747e-134
1.52031e-134
4.86091e-135
1.55175e-135
4.9459e-136
1.57394e-136
5.00098e-137
1.58651e-137
5.02523e-138
1.58926e-138
5.01833e-139
1.58217e-139
4.98051e-140
1.5654e-140
4.91259e-141
1.53931e-141
4.8159e-142
1.5044e-142
4.69229e-143
1.46132e-143
4.54404e-144
1.41085e-144
4.37379e-145
1.35388e-145
4.1845e-146
1.29137e-146
3.97929e-147
1.22435e-147
3.76145e-148
1.15386e-148
3.53427e-149
1.08093e-149
3.30103e-150
1.00659e-150
3.06487e-151
9.31809e-152
2.82877e-152
8.57485e-153
2.59546e-153
7.84443e-154
2.36739e-154
7.13412e-155
2.14671e-155
6.45017e-156
1.93524e-156
5.7978e-157
1.73444e-157
5.18113e-158
1.54546e-158
4.60323e-159
1.36911e-159
4.06618e-160
1.20589e-160
3.57112e-161
1.05603e-161
3.11835e-162
9.19497e-163
2.70741e-163
7.96046e-164
2.33723e-164
6.85247e-165
2.0062e-165
5.86525e-166
1.71231e-166
4.99186e-167
1.45322e-167
4.22459e-168
1.22639e-168
3.55516e-169
1.02915e-169
2.97504e-170
8.58812e-171
2.47569e-171
7.12669e-172
2.04868e-172
5.88107e-173
1.68591e-173
4.82627e-174
1.3797e-174
3.93877e-175
1.12288e-175
3.19676e-176
9.08841e-177
2.58029e-177
7.31565e-178
2.0713e-178
5.85649e-179
1.65363e-179
4.66281e-180
1.313e-180
3.69225e-181
1.03688e-181
2.90787e-182
8.14393e-183
2.27775e-183
6.36196e-184
1.77456e-184
4.94316e-185
1.3751e-185
3.82017e-186
1.05986e-186
2.93652e-187
8.12523e-188
2.24522e-188
6.19589e-189
1.70754e-189
4.69958e-190
1.29173e-190
3.54576e-191
9.7201e-192
2.66109e-192
7.27568e-193
1.98663e-193
5.41735e-194
1.47532e-194
4.01252e-195
1.08988e-195
2.95645e-196
8.0093e-197
2.16697e-197
5.85523e-198
1.58005e-198
4.25826e-199
1.14612e-199
3.08082e-200
8.27063e-201
2.21743e-201
5.93747e-202
1.58779e-202
4.24057e-203
1.13109e-203
3.0131e-204
8.01626e-205
2.12997e-205
5.65225e-206
1.49801e-206
3.96509e-207
1.04819e-207
2.7674e-208
7.29714e-209
1.92169e-209
5.05432e-210
1.32768e-210
3.48317e-211
9.12659e-212
2.38833e-212
6.24216e-213
1.6294e-213
4.24792e-214
1.10607e-214
2.87634e-215
7.47064e-216
1.9379e-216
5.02071e-217
1.29914e-217
3.35744e-218
8.66604e-219
2.23406e-219
5.75213e-220
1.4792e-220
3.79915e-221
9.74565e-222
2.49689e-222
6.3893e-223
1.63295e-223
4.1683e-224
1.06271e-224
2.70604e-225
6.88215e-226
1.74817e-226
4.43519e-227
1.12386e-227
2.84434e-228
7.18993e-229
1.81526e-229
4.57749e-230
1.15289e-230
2.90018e-231
7.2868e-232
1.82862e-232
4.5834e-233
1.14743e-233
2.8691e-234
7.16544e-235
1.78738e-235
4.45321e-236
1.10817e-236
2.75438e-237
6.83788e-238
1.69551e-238
4.19917e-239
1.03874e-239
2.56648e-240
6.33362e-241
1.56117e-241
3.84358e-242
9.45164e-243
2.32148e-243
5.69523e-244
1.39555e-244
3.41561e-245
8.3499e-246
2.03884e-246
4.97252e-247
1.21133e-247
2.94739e-248
7.16317e-249
1.73887e-249
4.21621e-250
1.02111e-250
2.47011e-251
5.96836e-252
1.44042e-252
3.47234e-253
8.36087e-254
2.01084e-254
4.83063e-255
1.15912e-255
2.77812e-256
6.6508e-257
1.59037e-257
3.79859e-258
9.06253e-259
2.15963e-259
5.14056e-260
1.22221e-260
2.90258e-261
6.88539e-262
1.63146e-262
3.86128e-263
9.12834e-264
2.15556e-264
5.08433e-265
1.19789e-265
2.81908e-266
6.62684e-267
1.55602e-267
3.64952e-268
8.54998e-269
2.00081e-269
4.67691e-270
1.092e-270
2.54684e-271
5.93324e-272
1.38069e-272
3.20934e-273
7.45159e-274
1.72822e-274
4.00371e-275
9.26498e-276
2.14162e-276
4.94492e-277
1.14049e-277
2.62752e-278
6.04668e-279
1.38998e-279
3.19168e-280
7.32068e-281
1.67728e-281
3.83866e-282
8.77559e-283
2.00399e-283
4.57128e-284
1.04161e-284
2.3708e-285
5.39027e-286
1.2242e-286
2.77726e-287
6.29374e-288
1.42472e-288
3.22162e-289
7.27693e-290
1.64191e-290
3.70067e-291
8.33184e-292
1.87383e-292
4.20969e-293
9.44714e-294
2.11779e-294
4.74237e-295
1.06082e-295
2.37038e-296
5.29089e-297
1.17971e-297
2.62756e-298
5.84608e-299
1.29931e-299
2.88467e-300
6.39759e-301
1.41733e-301
3.13664e-302
6.93418e-303
1.53131e-303
3.37807e-304
7.44414e-305
1.6387e-305
3.60349e-306
7.91566e-307
1.73697e-307
3.80748e-308
8.3373e-309
1.82371e-309
3.98499e-310
8.69846e-311
1.89671e-311
4.13145e-312
8.98979e-313
1.95407e-313
4.24304e-314
9.20365e-315
1.99429e-315
4.31681e-316
9.33438e-317
2.0163e-317
4.35084e-318
9.3787e-319
2.01954e-319
4.34481e-320
9.34278e-321
2.00591e-321
4.29837e-322
8.89318e-323
1.4822e-323
0
0
0
0
0
0
0
0
0
0
0
0
0
0
0
0
0
0
0
0
0
0
0
0
0
0
0
0
0
0
0
0
0
0
0
0
0
0
0
0
0
0
0
0
0
0
0
0
0
0
0
0
0
0
0
0
0
0
0
0
0
0
0
0
0
0
0
0
0
0
0
0
0
0
0
0
0
0
0
0
0
0
0
0
0
0
0
0
0
0
0
0
0
0
0
0
0
0
0
0
0
0
0
0
0
0
0
0
0
0
0
0
0
0
0
0
0
0
0
0
0
0
0
0
0
0
0
0
0
0
0
0
0
0
0
0
0
0
0
0
0
0
0
0
0
0
0
0
0
0
0
0
0
0
0
0
0
0
0
0
0
0
0
0
0
0
0
0
0
0
0
0
0
0
0
0
0
0
0
0
0
0
0
0
0
0
0
0
0
0
0
0
0
0
0
0
0
0
0
0
0
0
0
0
0
0
0
0
0
0
0
0
0
0
0
0
0
0
0
0
0
0
0
0
0
0
0
0
0
0
0
0
0
0
0
0
0
0
0
0
0
0
0
0
0
0
0
0
0
0
0
0
0
0
0
0
0
0
0
0
0
0
0
0
0
0
0
0
0
0
0
0
0
0
0
0
0
0
0
0
0
0
0
0
0
0
0
0
0
0
0
0
0
0
0
0
0
0
0
0
0
0
0
0
0
0
0
0
0
0
0
0
0
0
0
0
0
0
0
0
0
0
0
0
0
0
0
0
0
0
0
0
0
0
0
0
0
0
0
0
0
0
0
0
0
0
0
0
0
0
0
0
0
0
0
0
0
0
0
0
0
0
0
0
0
0
0
0
0
0
0
0
0
0
0
0
0
0
0
0
0
0
0
0
0
0
0
0
0
0
0
0
0
0
0
0
0
0
0
0
0
0
0
0
0
0
0
0
0
0
0
0
0
0
0
0
0
0
0
0
0
0
0
0
0
0
0
0
0
0
0
0
0
0
0
0
0
0
0
0
0
0
0
0
0
0
0
0
0
0
0
0
0
0
0
0
0
0
0
0
0
0
0
0
0
0
0
0
0
0
0
0
0
0
0
0
0
0
0
0
0
0
0.062787
0.0345542
0.0299574
0.025277
0.0221391
0.0200069
0.0184495
0.0172639
0.0163155
0.0155312
0.0148652
0.0142884
0.013781
0.0133294
0.0129237
0.0125563
0.0122216
0.0119149
0.0116326
0.0113716
0.0111293
0.0109037
0.0106929
0.0104953
0.0103096
0.0101346
0.00996925
0.00981273
0.00966419
0.00952296
0.0093884
0.00925997
0.00913718
0.00901959
0.0089068
0.00879848
0.00869429
0.00859396
0.00849722
0.00840386
0.00831364
0.00822639
0.00814193
0.00806009
0.00798074
0.00790375
0.00782899
0.00775635
0.00768574
0.00761705
0.00755021
0.00748513
0.00742176
0.00736001
0.00729982
0.00724115
0.00718393
0.00712813
0.00707367
0.00702053
0.00696865
0.00691799
0.00686849
0.00682012
0.00677283
0.00672657
0.0066813
0.00663699
0.0065936
0.00655112
0.00650955
0.00646893
0.0064293
0.00639075
0.00635338
0.00631736
0.00628282
0.00624995
0.00621889
0.00618976
0.00616257
0.00613724
0.00611352
0.00609099
0.00606899
0.00604664
0.00602286
0.00599642
0.00596603
0.00593046
0.00588875
0.00584041
0.00578566
0.00572565
0.00566268
0.00560035
0.00554356
0.00549841
0.00547188
0.00547131
0.00550363
0.00557445
0.00568695
0.00584073
0.00603067
0.00624594
0.00646933
0.0066769
0.00683825
0.00691753
0.00687507
0.00667021
0.00626544
0.00563183
0.00475462
0.00363984
0.00232345
0.000878738
-0.000579668
-0.00189886
-0.00290179
-0.00340848
-0.00325764
-0.0023257
-0.000543787
0.00209987
0.00556283
0.00975632
0.0145559
0.019813
0.0253712
0.0310684
0.0367366
0.0422178
0.047381
0.0521015
0.0562424
0.0596831
0.0623658
0.0642981
0.0655124
0.0660322
0.0658739
0.0650631
0.0636444
0.0616797
0.0592415
0.056409
0.0532655
0.0498964
0.0463866
0.0428172
0.0392615
0.0357824
0.0324311
0.0292462
0.0262551
0.0234744
0.0209122
0.0185696
0.0164421
0.0145212
0.0127956
0.0112525
0.00987791
0.00865752
0.00757729
0.0066236
0.00578355
0.00504508
0.00439704
0.00382924
0.00333243
0.00289826
0.00251922
0.00218863
0.00190054
0.00164968
0.00143138
0.00124152
0.0010765
0.000933126
0.000808622
0.000700545
0.000606764
0.000525414
0.000454871
0.000393716
0.000340715
0.000294792
0.000255011
0.000220559
0.000190728
0.000164904
0.000142553
0.000123212
0.000106478
9.20023e-05
7.94827e-05
6.86564e-05
5.9296e-05
5.12042e-05
4.42103e-05
3.81663e-05
3.29438e-05