# vtk DataFile Version 2.0
FlowField
ASCII
DATASET STRUCTURED_GRID
DIMENSIONS 1602 1 52
POINTS 83304 float
0 0 0
0.1 0 0
0.2 0 0
0.3 0 0
0.4 0 0
0.5 0 0
0.6 0 0
0.7 0 0
0.8 0 0
0.9 0 0
1 0 0
1.1 0 0
1.2 0 0
1.3 0 0
1.4 0 0
1.5 0 0
1.6 0 0
1.7 0 0
1.8 0 0
1.9 0 0
2 0 0
2.1 0 0
2.2 0 0
2.3 0 0
2.4 0 0
2.5 0 0
2.6 0 0
2.7 0 0
2.8 0 0
2.9 0 0
3 0 0
3.1 0 0
3.2 0 0
3.3 0 0
3.4 0 0
3.5 0 0
3.6 0 0
3.7 0 0
3.8 0 0
3.9 0 0
4 0 0
4.1 0 0
4.2 0 0
4.3 0 0
4.4 0 0
4.5 0 0
4.6 0 0
4.7 0 0
4.8 0 0
4.9 0 0
5 0 0
5.1 0 0
5.2 0 0
5.3 0 0
5.4 0 0
5.5 0 0
5.6 0 0
5.7 0 0
5.8 0 0
5.9 0 0
6 0 0
6.1 0 0
6.2 0 0
6.3 0 0
6.4 0 0
6.5 0 0
6.6 0 0
6.7 0 0
6.8 0 0
6.9 0 0
7 0 0
7.1 0 0
7.2 0 0
7.3 0 0
7.4 0 0
7.5 0 0
7.6 0 0
7.7 0 0
7.8 0 0
7.9 0 0
8 0 0
8.1 0 0
8.2 0 0
8.3 0 0
8.4 0 0
8.5 0 0
8.6 0 0
8.7 0 0
8.8 0 0
8.9 0 0
9 0 0
9.1 0 0
9.2 0 0
9.3 0 0
9.4 0 0
9.5 0 0
9.6 0 0
9.7 0 0
9.8 0 0
9.9 0 0
10 0 0
10.1 0 0
10.2 0 0
10.3 0 0
10.4 0 0
10.5 0 0
10.6 0 0
10.7 0 0
10.8 0 0
10.9 0 0
11 0 0
11.1 0 0
11.2 0 0
11.3 0 0
11.4 0 0
11.5 0 0
11.6 0 0
11.7 0 0
11.8 0 0
11.9 0 0
12 0 0
12.1 0 0
12.2 0 0
12.3 0 0
12.4 0 0
12.5 0 0
12.6 0 0
12.7 0 0
12.8 0 0
12.9 0 0
13 0 0
13.1 0 0
13.2 0 0
13.3 0 0
13.4 0 0
13.5 0 0
13.6 0 0
13.7 0 0
13.8 0 0
13.9 0 0
14 0 0
14.1 0 0
14.2 0 0
14.3 0 0
14.4 0 0
14.5 0 0
14.6 0 0
14.7 0 0
14.8 0 0
14.9 0 0
15 0 0
15.1 0 0
15.2 0 0
15.3 0 0
15.4 0 0
15.5 0 0
15.6 0 0
15.7 0 0
15.8 0 0
15.9 0 0
16 0 0
16.1 0 0
16.2 0 0
16.3 0 0
16.4 0 0
16.5 0 0
16.6 0 0
16.7 0 0
16.8 0 0
16.9 0 0
17 0 0
17.1 0 0
17.2 0 0
17.3 0 0
17.4 0 0
17.5 0 0
17.6 0 0
17.7 0 0
17.8 0 0
17.9 0 0
18 0 0
18.1 0 0
18.2 0 0
18.3 0 0
18.4 0 0
18.5 0 0
18.6 0 0
18.7 0 0
18.8 0 0
18.9 0 0
19 0 0
19.1 0 0
19.2 0 0
19.3 0 0
19.4 0 0
19.5 0 0
19.6 0 0
19.7 0 0
19.8 0 0
19.9 0 0
20 0 0
20.1 0 0
20.2 0 0
20.3 0 0
20.4 0 0
20.5 0 0
20.6 0 0
20.7 0 0
20.8 0 0
20.9 0 0
21 0 0
21.1 0 0
21.2 0 0
21.3 0 0
21.4 0 0
21.5 0 0
21.6 0 0
21.7 0 0
21.8 0 0
21.9 0 0
22 0 0
22.1 0 0
22.2 0 0
22.3 0 0
22.4 0 0
22.5 0 0
22.6 0 0
22.7 0 0
22.8 0 0
22.9 0 0
23 0 0
23.1 0 0
23.2 0 0
23.3 0 0
23.4 0 0
23.5 0 0
23.6 0 0
23.7 0 0
23.8 0 0
23.9 0 0
24 0 0
24.1 0 0
24.2 0 0
24.3 0 0
24.4 0 0
24.5 0 0
24.6 0 0
24.7 0 0
24.8 0 0
24.9 0 0
25 0 0
25.1 0 0
25.2 0 0
25.3 0 0
25.4 0 0
25.5 0 0
25.6 0 0
25.7 0 0
25.8 0 0
25.9 0 0
26 0 0
26.1 0 0
26.2 0 0
26.3 0 0
26.4 0 0
26.5 0 0
26.6 0 0
26.7 0 0
26.8 0 0
26.9 0 0
27 0 0
27.1 0 0
27.2 0 0
27.3 0 0
27.4 0 0
27.5 0 0
27.6 0 0
27.7 0 0
27.8 0 0
27.9 0 0
28 0 0
28.1 0 0
28.2 0 0
28.3 0 0
28.4 0 0
28.5 0 0
28.6 0 0
28.7 0 0
28.8 0 0
28.9 0 0
29 0 0
29.1 0 0
29.2 0 0
29.3 0 0
29.4 0 0
29.5 0 0
29.6 0 0
29.7 0 0
29.8 0 0
29.9 0 0
30 0 0
30.1 0 0
30.2 0 0
30.3 0 0
30.4 0 0
30.5 0 0
30.6 0 0
30.7 0 0
30.8 0 0
30.9 0 0
31 0 0
31.1 0 0
31.2 0 0
31.3 0 0
31.4 0 0
31.5 0 0
31.6 0 0
31.7 0 0
31.8 0 0
31.9 0 0
32 0 0
32.1 0 0
32.2 0 0
32.3 0 0
32.4 0 0
32.5 0 0
32.6 0 0
32.7 0 0
32.8 0 0
32.9 0 0
33 0 0
33.1 0 0
33.2 0 0
33.3 0 0
33.4 0 0
33.5 0 0
33.6 0 0
33.7 0 0
33.8 0 0
33.9 0 0
34 0 0
34.1 0 0
34.2 0 0
34.3 0 0
34.4 0 0
34.5 0 0
34.6 0 0
34.7 0 0
34.8 0 0
34.9 0 0
35 0 0
35.1 0 0
35.2 0 0
35.3 0 0
35.4 0 0
35.5 0 0
35.6 0 0
35.7 0 0
35.8 0 0
35.9 0 0
36 0 0
36.1 0 0
36.2 0 0
36.3 0 0
36.4 0 0
36.5 0 0
36.6 0 0
36.7 0 0
36.8 0 0
36.9 0 0
37 0 0
37.1 0 0
37.2 0 0
37.3 0 0
37.4 0 0
37.5 0 0
37.6 0 0
37.7 0 0
37.8 0 0
37.9 0 0
38 0 0
38.1 0 0
38.2 0 0
38.3 0 0
38.4 0 0
38.5 0 0
38.6 0 0
38.7 0 0
38.8 0 0
38.9 0 0
39 0 0
39.1 0 0
39.2 0 0
39.3 0 0
39.4 0 0
39.5 0 0
39.6 0 0
39.7 0 0
39.8 0 0
39.9 0 0
40 0 0
40.1 0 0
40.2 0 0
40.3 0 0
40.4 0 0
40.5 0 0
40.6 0 0
40.7 0 0
40.8 0 0
40.9 0 0
41 0 0
41.1 0 0
41.2 0 0
41.3 0 0
41.4 0 0
41.5 0 0
41.6 0 0
41.7 0 0
41.8 0 0
41.9 0 0
42 0 0
42.1 0 0
42.2 0 0
42.3 0 0
42.4 0 0
42.5 0 0
42.6 0 0
42.7 0 0
42.8 0 0
42.9 0 0
43 0 0
43.1 0 0
43.2 0 0
43.3 0 0
43.4 0 0
43.5 0 0
43.6 0 0
43.7 0 0
43.8 0 0
43.9 0 0
44 0 0
44.1 0 0
44.2 0 0
44.3 0 0
44.4 0 0
44.5 0 0
44.6 0 0
44.7 0 0
44.8 0 0
44.9 0 0
45 0 0
45.1 0 0
45.2 0 0
45.3 0 0
45.4 0 0
45.5 0 0
45.6 0 0
45.7 0 0
45.8 0 0
45.9 0 0
46 0 0
46.1 0 0
46.2 0 0
46.3 0 0
46.4 0 0
46.5 0 0
46.6 0 0
46.7 0 0
46.8 0 0
46.9 0 0
47 0 0
47.1 0 0
47.2 0 0
47.3 0 0
47.4 0 0
47.5 0 0
47.6 0 0
47.7 0 0
47.8 0 0
47.9 0 0
48 0 0
48.1 0 0
48.2 0 0
48.3 0 0
48.4 0 0
48.5 0 0
48.6 0 0
48.7 0 0
48.8 0 0
48.9 0 0
49 0 0
49.1 0 0
49.2 0 0
49.3 0 0
49.4 0 0
49.5 0 0
49.6 0 0
49.7 0 0
49.8 0 0
49.9 0 0
50 0 0
50.1 0 0
50.2 0 0
50.3 0 0
50.4 0 0
50.5 0 0
50.6 0 0
50.7 0 0
50.8 0 0
50.9 0 0
51 0 0
51.1 0 0
51.2 0 0
51.3 0 0
51.4 0 0
51.5 0 0
51.6 0 0
51.7 0 0
51.8 0 0
51.9 0 0
52 0 0
52.1 0 0
52.2 0 0
52.3 0 0
52.4 0 0
52.5 0 0
52.6 0 0
52.7 0 0
52.8 0 0
52.9 0 0
53 0 0
53.1 0 0
53.2 0 0
53.3 0 0
53.4 0 0
53.5 0 0
53.6 0 0
53.7 0 0
53.8 0 0
53.9 0 0
54 0 0
54.1 0 0
54.2 0 0
54.3 0 0
54.4 0 0
54.5 0 0
54.6 0 0
54.7 0 0
54.8 0 0
54.9 0 0
55 0 0
55.1 0 0
55.2 0 0
55.3 0 0
55.4 0 0
55.5 0 0
55.6 0 0
55.7 0 0
55.8 0 0
55.9 0 0
56 0 0
56.1 0 0
56.2 0 0
56.3 0 0
56.4 0 0
56.5 0 0
56.6 0 0
56.7 0 0
56.8 0 0
56.9 0 0
57 0 0
57.1 0 0
57.2 0 0
57.3 0 0
57.4 0 0
57.5 0 0
57.6 0 0
57.7 0 0
57.8 0 0
57.9 0 0
58 0 0
58.1 0 0
58.2 0 0
58.3 0 0
58.4 0 0
58.5 0 0
58.6 0 0
58.7 0 0
58.8 0 0
58.9 0 0
59 0 0
59.1 0 0
59.2 0 0
59.3 0 0
59.4 0 0
59.5 0 0
59.6 0 0
59.7 0 0
59.8 0 0
59.9 0 0
60 0 0
60.1 0 0
60.2 0 0
60.3 0 0
60.4 0 0
60.5 0 0
60.6 0 0
60.7 0 0
60.8 0 0
60.9 0 0
61 0 0
61.1 0 0
61.2 0 0
61.3 0 0
61.4 0 0
61.5 0 0
61.6 0 0
61.7 0 0
61.8 0 0
61.9 0 0
62 0 0
62.1 0 0
62.2 0 0
62.3 0 0
62.4 0 0
62.5 0 0
62.6 0 0
62.7 0 0
62.8 0 0
62.9 0 0
63 0 0
63.1 0 0
63.2 0 0
63.3 0 0
63.4 0 0
63.5 0 0
63.6 0 0
63.7 0 0
63.8 0 0
63.9 0 0
64 0 0
64.1 0 0
64.2 0 0
64.3 0 0
64.4 0 0
64.5 0 0
64.6 0 0
64.7 0 0
64.8 0 0
64.9 0 0
65 0 0
65.1 0 0
65.2 0 0
65.3 0 0
65.4 0 0
65.5 0 0
65.6 0 0
65.7 0 0
65.8 0 0
65.9 0 0
66 0 0
66.1 0 0
66.2 0 0
66.3 0 0
66.4 0 0
66.5 0 0
66.6 0 0
66.7 0 0
66.8 0 0
66.9 0 0
67 0 0
67.1 0 0
67.2 0 0
67.3 0 0
67.4 0 0
67.5 0 0
67.6 0 0
67.7 0 0
67.8 0 0
67.9 0 0
68 0 0
68.1 0 0
68.2 0 0
68.3 0 0
68.4 0 0
68.5 0 0
68.6 0 0
68.7 0 0
68.8 0 0
68.9 0 0
69 0 0
69.1 0 0
69.2 0 0
69.3 0 0
69.4 0 0
69.5 0 0
69.6 0 0
69.7 0 0
69.8 0 0
69.9 0 0
70 0 0
70.1 0 0
70.2 0 0
70.3 0 0
70.4 0 0
70.5 0 0
70.6 0 0
70.7 0 0
70.8 0 0
70.9 0 0
71 0 0
71.1 0 0
71.2 0 0
71.3 0 0
71.4 0 0
71.5 0 0
71.6 0 0
71.7 0 0
71.8 0 0
71.9 0 0
72 0 0
72.1 0 0
72.2 0 0
72.3 0 0
72.4 0 0
72.5 0 0
72.6 0 0
72.7 0 0
72.8 0 0
72.9 0 0
73 0 0
73.1 0 0
73.2 0 0
73.3 0 0
73.4 0 0
73.5 0 0
73.6 0 0
73.7 0 0
73.8 0 0
73.9 0 0
74 0 0
74.1 0 0
74.2 0 0
74.3 0 0
74.4 0 0
74.5 0 0
74.6 0 0
74.7 0 0
74.8 0 0
74.9 0 0
75 0 0
75.1 0 0
75.2 0 0
75.3 0 0
75.4 0 0
75.5 0 0
75.6 0 0
75.7 0 0
75.8 0 0
75.9 0 0
76 0 0
76.1 0 0
76.2 0 0
76.3 0 0
76.4 0 0
76.5 0 0
76.6 0 0
76.7 0 0
76.8 0 0
76.9 0 0
77 0 0
77.1 0 0
77.2 0 0
77.3 0 0
77.4 0 0
77.5 0 0
77.6 0 0
77.7 0 0
77.8 0 0
77.9 0 0
78 0 0
78.1 0 0
78.2 0 0
78.3 0 0
78.4 0 0
78.5 0 0
78.6 0 0
78.7 0 0
78.8 0 0
78.9 0 0
79 0 0
79.1 0 0
79.2 0 0
79.3 0 0
79.4 0 0
79.5 0 0
79.6 0 0
79.7 0 0
79.8 0 0
79.9 0 0
80 0 0
80.1 0 0
80.2 0 0
80.3 0 0
80.4 0 0
80.5 0 0
80.6 0 0
80.7 0 0
80.8 0 0
80.9 0 0
81 0 0
81.1 0 0
81.2 0 0
81.3 0 0
81.4 0 0
81.5 0 0
81.6 0 0
81.7 0 0
81.8 0 0
81.9 0 0
82 0 0
82.1 0 0
82.2 0 0
82.3 0 0
82.4 0 0
82.5 0 0
82.6 0 0
82.7 0 0
82.8 0 0
82.9 0 0
83 0 0
83.1 0 0
83.2 0 0
83.3 0 0
83.4 0 0
83.5 0 0
83.6 0 0
83.7 0 0
83.8 0 0
83.9 0 0
84 0 0
84.1 0 0
84.2 0 0
84.3 0 0
84.4 0 0
84.5 0 0
84.6 0 0
84.7 0 0
84.8 0 0
84.9 0 0
85 0 0
85.1 0 0
85.2 0 0
85.3 0 0
85.4 0 0
85.5 0 0
85.6 0 0
85.7 0 0
85.8 0 0
85.9 0 0
86 0 0
86.1 0 0
86.2 0 0
86.3 0 0
86.4 0 0
86.5 0 0
86.6 0 0
86.7 0 0
86.8 0 0
86.9 0 0
87 0 0
87.1 0 0
87.2 0 0
87.3 0 0
87.4 0 0
87.5 0 0
87.6 0 0
87.7 0 0
87.8 0 0
87.9 0 0
88 0 0
88.1 0 0
88.2 0 0
88.3 0 0
88.4 0 0
88.5 0 0
88.6 0 0
88.7 0 0
88.8 0 0
88.9 0 0
89 0 0
89.1 0 0
89.2 0 0
89.3 0 0
89.4 0 0
89.5 0 0
89.6 0 0
89.7 0 0
89.8 0 0
89.9 0 0
90 0 0
90.1 0 0
90.2 0 0
90.3 0 0
90.4 0 0
90.5 0 0
90.6 0 0
90.7 0 0
90.8 0 0
90.9 0 0
91 0 0
91.1 0 0
91.2 0 0
91.3 0 0
91.4 0 0
91.5 0 0
91.6 0 0
91.7 0 0
91.8 0 0
91.9 0 0
92 0 0
92.1 0 0
92.2 0 0
92.3 0 0
92.4 0 0
92.5 0 0
92.6 0 0
92.7 0 0
92.8 0 0
92.9 0 0
93 0 0
93.1 0 0
93.2 0 0
93.3 0 0
93.4 0 0
93.5 0 0
93.6 0 0
93.7 0 0
93.8 0 0
93.9 0 0
94 0 0
94.1 0 0
94.2 0 0
94.3 0 0
94.4 0 0
94.5 0 0
94.6 0 0
94.7 0 0
94.8 0 0
94.9 0 0
95 0 0
95.1 0 0
95.2 0 0
95.3 0 0
95.4 0 0
95.5 0 0
95.6 0 0
95.7 0 0
95.8 0 0
95.9 0 0
96 0 0
96.1 0 0
96.2 0 0
96.3 0 0
96.4 0 0
96.5 0 0
96.6 0 0
96.7 0 0
96.8 0 0
96.9 0 0
97 0 0
97.1 0 0
97.2 0 0
97.3 0 0
97.4 0 0
97.5 0 0
97.6 0 0
97.7 0 0
97.8 0 0
97.9 0 0
98 0 0
98.1 0 0
98.2 0 0
98.3 0 0
98.4 0 0
98.5 0 0
98.6 0 0
98.7 0 0
98.8 0 0
98.9 0 0
99 0 0
99.1 0 0
99.2 0 0
99.3 0 0
99.4 0 0
99.5 0 0
99.6 0 0
99.7 0 0
99.8 0 0
99.9 0 0
100 0 0
100.1 0 0
100.2 0 0
100.3 0 0
100.4 0 0
100.5 0 0
100.6 0 0
100.7 0 0
100.8 0 0
100.9 0 0
101 0 0
101.1 0 0
101.2 0 0
101.3 0 0
101.4 0 0
101.5 0 0
101.6 0 0
101.7 0 0
101.8 0 0
101.9 0 0
102 0 0
102.1 0 0
102.2 0 0
102.3 0 0
102.4 0 0
102.5 0 0
102.6 0 0
102.7 0 0
102.8 0 0
102.9 0 0
103 0 0
103.1 0 0
103.2 0 0
103.3 0 0
103.4 0 0
103.5 0 0
103.6 0 0
103.7 0 0
103.8 0 0
103.9 0 0
104 0 0
104.1 0 0
104.2 0 0
104.3 0 0
104.4 0 0
104.5 0 0
104.6 0 0
104.7 0 0
104.8 0 0
104.9 0 0
105 0 0
105.1 0 0
105.2 0 0
105.3 0 0
105.4 0 0
105.5 0 0
105.6 0 0
105.7 0 0
105.8 0 0
105.9 0 0
106 0 0
106.1 0 0
106.2 0 0
106.3 0 0
106.4 0 0
106.5 0 0
106.6 0 0
106.7 0 0
106.8 0 0
106.9 0 0
107 0 0
107.1 0 0
107.2 0 0
107.3 0 0
107.4 0 0
107.5 0 0
107.6 0 0
107.7 0 0
107.8 0 0
107.9 0 0
108 0 0
108.1 0 0
108.2 0 0
108.3 0 0
108.4 0 0
108.5 0 0
108.6 0 0
108.7 0 0
108.8 0 0
108.9 0 0
109 0 0
109.1 0 0
109.2 0 0
109.3 0 0
109.4 0 0
109.5 0 0
109.6 0 0
109.7 0 0
109.8 0 0
109.9 0 0
110 0 0
110.1 0 0
110.2 0 0
110.3 0 0
110.4 0 0
110.5 0 0
110.6 0 0
110.7 0 0
110.8 0 0
110.9 0 0
111 0 0
111.1 0 0
111.2 0 0
111.3 0 0
111.4 0 0
111.5 0 0
111.6 0 0
111.7 0 0
111.8 0 0
111.9 0 0
112 0 0
[...]
POINT_DATA 83304

SCALARS pressure float 1
LOOKUP_TABLE default
0
0
0
0
0
0
0
0
0
0
0
0
0
0
0
0
0
0
0
0
0
0
0
0
0
0
0
0
0
0
0
0
0
0
0
0
0
0
0
0
0
0
0
0
0
0
0
0
0
0
0
0
0
0
0
0
0
0
0
0
0
0
0
0
0
0
0
0
0
0
0
0
0
0
0
0
0
0
0
0
0
0
0
0
0
0
0
0
0
0
0
0
0
0
0
0
0
0
0
0
0
0
0
0
0
0
0
0
0
0
0
0
0
0
0
0
0
0
0
0
0
0
0
0
0
0
0
0
0
0
0
0
0
0
0
0
0
0
0
0
0
0
0
0
0
0
0
0
0
0
0
0
0
0
0
0
0
0
0
0
0
0
0
0
0
0
0
0
0
0
0
0
0
0
0
0
0
0
0
0
0
0
0
0
0
0
0
0
0
0
0
0
0
0
0
0
0
0
0
0
0
0
0
0
0
0
0
0
0
0
0
0
0
0
0
0
0
0
0
0
0
0
0
0
0
0
0
0
0
0
0
0
0
0
0
0
0
0
0
0
0
0
0
0
0
0
0
0
0
0
0
0
0
0
0
0
0
0
0
0
0
0
0
0
0
0
0
0
0
0
0
0
0
0
0
0
0
0
0
0
0
0
0
0
0
0
0
0
0
0
0
0
0
0
0
0
0
0
0
0
0
0
0
0
0
0
0
0
0
0
0
0
0
0
0
0
0
0
0
0
0
0
0
0
0
0
0
0
0
0
0
0
0
0
0
0
0
0
0
0
0
0
0
0
0
0
0
0
0
0
0
0
0
0
0
0
0
0
0
0
0
0
0
0
0
0
0
0
0
0
0
0
0
0
0
0
0
0
0
0
0
0
0
0
0
0
0
0
0
0
0
0
0
0
0
0
0
0
0
0
0
0
0
0
0
0
0
0
0
0
0
0
0
0
0
0
0
0
0
0
0
0
0
0
0
0
0
0
0
0
0
0
0
0
0
0
0
0
0
0
0
0
0
0
0
0
0
0
0
0
0
0
0
0
0
0
0
0
0
0
0
0
0
0
0
0
0
0
0
0
0
0
0
0
0
0
0
0
0
0
0
0
0
0
0
0
0
0
0
0
0
0
0
0
0
0
0
0
0
0
0
0
0
0
0
0
0
0
0
0
0
0
0
0
0
0
0
0
0
0
0
0
0
0
0
0
0
0
0
0
0
0
0
0
0
0
0
0
0
0
0
0
0
0
0
0
0
0
0
0
0
0
0
0
0
0
0
0
0
0
0
0
0
0
0
0
0
0
0
0
0
0
0
0
0
0
0
0
0
0
0
0
0
0
0
0
0
0
0
0
0
0
0
0
0
0
0
0
0
0
0
0
0
0
0
0
0
0
0
0
0
0
0
0
0
0
0
0
0
0
0
0
0
0
0
0
0
0
0
0
0
0
0
0
0
0
0
0
0
0
0
0
0
0
0
0
0
0
0
0
0
0
0
0
0
0
0
0
0
0
0
0
0
0
0
0
0
0
0
0
0
0
0
0
0
0
0
0
0
0
0
0
0
0
0
0
0
0
0
0
0
0
0
0
0
0
0
0
0
0
0
0
0
0
0
0
0
0
0
0
0
0
0
0
0
0
0
0
0
0
0
0
0
0
0
0
0
0
0
0
0
0
0
0
0
0
0
0
0
0
0
0
0
0
0
0
0
0
0
0
0
0
0
0
0
0
0
0
0
0
0
0
0
0
0
0
0
0
0
0
0
0
0
0
0
0
0
0
0
0
0
0
0
0
0
0
0
0
0
0
0
0
0
0
0
0
0
0
0
0
0
0
0
0
0
0
0
0
0
0
0
0
0
0
0
0
0
0
0
0
0
0
0
0
0
0
0
0
0
0
0
0
0
0
0
0
0
0
0
0
0
0
0
0
0
0
0
0
0
0
0
0
0
0
0
0
0
0
0
0
0
0
0
0
0
0
0
0
0
0
0
0
0
0
0
0
0
0
0
0
0
0
0
0
0
0
0
0
0
0
0
0
0
0
0
0
0
0
0
0
0
0
0
0
0
0
0
0
0
0
0
0
0
0
0
0
0
0
0
0
0
0
0
0
0
0
0
0
0
0
0
0
0
0
0
0
0
0
0
0
0
0
0
0
0
0
0
0
0
0
0
0
0
0
0
0
0
0
0
0
0
0
0
0
0
0
0
0
0
0
0
0
0
0
0
0
0
0
0
0
0
0
0
0
0
0
0
0
0
0
0
0
0
0
0
0
0
0
0
0
0
0
0
0
0
0
0
0
0
0
0
0
0
0
0
0
0
0
0
0
0
0
0
0
0
0
0
0
0
0
0
0
0
0
0
0
0
0
0
0
0
0
0
0
0
0
0
0
0
0
0
0
0
0
0
0
0
0
0
0
0
0
0
0
0
0
0
0
0
0
0
0
0
0
0
0
0
0
0
0
0
0
0
0
0
0
0
0
0
0
0
0
0
0
0
0
0
0
0
0
0
0
0
0
0
0
0
0
0
0
0
0
0
0
0
0
0
0
0
0
0
0
0
0
0
0
0
0
0
0
0
0
0
0
0
0
0
0
0
0
0
0
0
0
0
0
0
0
0
0
0
0
0
0
0
0
0
0
0
0
0
0
0
0
0
0
0
0
0
0
0
0
0
0
0
0
0
0
0
0
0
0
0
0
0
0
0
0
0
0
0
0
0
0
0
0
0
0
0
0
0
0
0
0
0
0
0
0
0
0
0
0
0
0
0
0
0
0
0
0
0
0
0
0
0
0
0
0
0
0
0
0
0
0
0
0
0
0
0
0
0
0
0
0
0
0
0
0
0
0
0
0
0
0
0
0
0
0
0
0
0
0
0
0
0
0
0
0
0
0
0
0
0
0
0
0
0
0
0
0
0
0
0
0
0
0
0
0
0
0
0
0
0
0
0
0
0
0
0
0
0
0
0
0
0
0
0
0
0
0
0
0
0
0
0
0
0
0
0
0
0
0
0
0
0
0
0
0
0
0
0
0
0
0
0
0
0
0
0
0
0
0
0
0
0
0
0
0
0
0
0
0
0
0
0
0
0
0
0
0
0
0
0
0
0
0
0
0
0
0
0
0
0
0
0
0
0
0
0
0
0
0
0
0
0
0
0
0
0
0
0
0
0
0
0
0
0
0
0
0
0
0
0
0
0
0
0
0
0
0
0
0
0
0
0
0
0
0
0
0
0
0
0
0
0
0
0
0
0
0
0
0
0
0
0
0
0
0
0
0
0
0
0
0
0
0
0
0
0
0
0
0
0
0
0
0
0
0
0
0
0
0
0
0
0
0
0
0
0
0
0
0
0
0
0
0
0
0
0
0
0
0
0
0
0
0
0
0
0
0
0
0
0
0
0
0
0
0
0
0
0
0
0
0
0
0
0
0
0
0
0
0
0
0
0
0
0
0
0
0
0
0
0
0
0
0
0
0
0
0
0
0
0
0
0
0
0
0
0
0
0
0
0
0
0
0
0
0
0
0
0
0
0
0
0
0
0
0
0
0
0
0
0
0
0
0
0
0
0
0
0
0
0
0
0
0
0
0
0
0
0
0
0
0
0
0
0
0
0
0
0
0
0
0
0
0
0
0
0
0
0
0
0
0.0776415
0.052903
0.0436505
0.0357426
0.03048
0.0271088
0.0248019
0.023116
0.0218008
0.0207277
0.0198235
0.0190436
0.0183596
0.0177519
0.0172066
0.0167134
0.0162643
0.0158532
0.0154749
0.0151254
0.0148012
0.0144993
0.0142174
0.0139533
0.0137051
0.0134714
0.0132506
0.0130416
0.0128434
0.0126549
0.0124753
0.012304
0.0121401
0.0119833
0.0118328
0.0116884
0.0115494
0.0114156
0.0112866
0.0111621
0.0110418
0.0109255
0.0108128
0.0107037
0.0105979
0.0104952
0.0103955
0.0102986
0.0102044
0.0101128
0.0100235
0.00993657
0.00985183
0.0097692
0.0096886
0.00960995
0.00953321
0.00945834
0.00938534
0.00931423
0.00924506
0.00917792
0.00911292
0.00905021
0.00898991
0.00893215
0.00887699
0.0088244
0.00877421
0.00872606
0.00867934
0.00863319
0.00858642
0.00853758
0.00848501
0.00842694
0.00836168
0.00828786
0.00820472
0.0081125
0.00801276
0.0079087
0.00780549
0.00771027
0.0076321
0.00758157
0.00757004
0.00760861
0.00770675
0.00787064
0.00810139
0.00839322
0.00873183
0.00909315
0.00944252
0.00973486
0.0099157
0.00992368
0.00969459
0.00916773
0.00829467
0.00704773
0.00543042
0.00349115
0.00133465
-0.000870625
-0.00289855
-0.00448917
-0.00538112
-0.0053445
-0.00420615
-0.00186841
0.00168853
0.00641482
0.0122
0.0188907
0.0263054
0.0342506
0.0425287
0.0509327
0.0592513
0.067298
0.0748882
0.0817985
0.0877905
0.0926889
0.0964181
0.0989605
0.100304
0.100437
0.0993736
0.0971784
0.0939644
0.0898812
0.0851001
0.0798021
0.0741679
0.0683677
0.0625526
0.0568493
0.0513573
0.0461497
0.0412753
0.0367626
0.0326236
0.0288573
0.0254535
0.0223951
0.019661
0.0172272
0.015069
0.0131614
0.0114801
0.0100018
0.00870486
0.00756914
0.00657623
0.00570943
0.00495367
0.00429546
0.00372276
0.00322491
0.00279245
0.00241704
0.00209137
0.00180899
0.00156427
0.00135229
0.00116873
0.00100984
0.00087236
0.000753433
0.000650587
0.000561671
0.000484818
0.000418406
0.000361029
0.000311468
0.000268668
0.000231712
0.000199809
0.000172272
0.000148508
0.000128003
0.000110314
9.50551e-05
8.18955e-05
7.05478e-05
6.0764e-05
5.23297e-05
4.506e-05
3.87948e-05
3.33961e-05
2.87448e-05
2.47379e-05
2.12866e-05
1.83143e-05
1.57549e-05
1.35513e-05
1.16543e-05
1.00214e-05
8.61619e-06
7.40695e-06
6.36654e-06
5.4715e-06
4.70163e-06
4.03951e-06
3.47014e-06
2.9806e-06
2.55975e-06
2.198e-06
1.8871e-06
1.61994e-06
1.3904e-06
1.1932e-06
1.02382e-06
8.78352e-07
7.53436e-07
6.46186e-07
5.54117e-07
4.75092e-07
4.07273e-07
3.4908e-07
2.99153e-07
2.56326e-07
2.19594e-07
1.88094e-07
1.61086e-07
1.37933e-07
1.18088e-07
1.0108e-07
8.65069e-08
7.40219e-08
6.33275e-08
5.41684e-08
4.63257e-08
3.96114e-08
3.38642e-08
2.89456e-08
2.47371e-08
2.11367e-08
1.80572e-08
1.54238e-08
1.31721e-08
1.12473e-08
9.60206e-09
8.19567e-09
6.99328e-09
5.96502e-09
5.08551e-09
4.33327e-09
3.69018e-09
3.14087e-09
2.67213e-09
2.27255e-09
1.93225e-09
1.64294e-09
1.39795e-09
1.19218e-09
1.02158e-09
8.82372e-10
7.69988e-10
6.78221e-10
5.99108e-10
5.23805e-10
4.44468e-10
3.56629e-10
2.61219e-10
1.6532e-10
8.0979e-11
2.20673e-11
-1.20253e-13
1.87784e-11
7.33784e-11
1.4845e-10
2.21928e-10
2.70406e-10
2.75619e-10
2.29975e-10
1.39351e-10
2.21624e-11
-9.51844e-11
-1.85235e-10
-2.26847e-10
-2.10863e-10
-1.42485e-10
-3.97334e-11
7.1485e-11
1.64241e-10
2.17414e-10
2.20661e-10
1.76305e-10
9.7849e-11
5.78349e-12
-7.80097e-11
-1.3567e-10
-1.57225e-10
-1.42098e-10
-9.81465e-11
-3.87711e-11
2.09323e-11
6.79035e-11
9.38319e-11
9.63451e-11
7.86196e-11
4.77599e-11
1.25378e-11
-1.8862e-11
-4.05596e-11
-4.98567e-11
-4.72257e-11
-3.55867e-11
-1.91792e-11
-2.37099e-12
1.13127e-11
1.9765e-11
2.24361e-11
2.00996e-11
1.43855e-11
7.23511e-12
4.19195e-13
-4.79117e-12
-7.76604e-12
-8.48634e-12
-7.3919e-12
-5.17206e-12
-2.55884e-12
-1.66198e-13
1.60272e-12
2.57921e-12
2.79774e-12
2.4317e-12
1.71902e-12
8.96078e-13
1.51234e-13
-3.98205e-13
-7.07809e-13
-7.92665e-13
-7.06202e-13
-5.17907e-13
-2.94814e-13
-8.93032e-14
6.63176e-14
1.59558e-13
1.93692e-13
1.81958e-13
1.41741e-13
8.98958e-14
3.97361e-14
-2.65028e-16
-2.64089e-14
-3.88137e-14
-4.00647e-14
-3.38679e-14
-2.39686e-14
-1.34452e-14
-4.38283e-15
2.15081e-15
5.93023e-15
7.30485e-15
6.92344e-15
5.50553e-15
3.68502e-15
1.92831e-15
5.13938e-16
-4.45705e-16
-9.60799e-16
-1.11507e-15
-1.02246e-15
-7.95214e-16
-5.24797e-16
-2.7401e-16
-7.73654e-17
5.36672e-17
1.23425e-16
1.44934e-16
1.34141e-16
1.05972e-16
7.21866e-17
4.06581e-17
1.56339e-17
-1.48636e-18
-1.12025e-17
-1.50348e-17
-1.48384e-17
-1.23501e-17
-8.94716e-18
-5.56982e-18
-2.75173e-18
-7.05693e-19
5.73194e-19
1.21242e-18
1.38775e-18
1.27323e-18
1.0134e-18
7.12675e-19
4.3598e-19
2.15731e-19
6.10112e-20
-3.34876e-20
-8.01782e-20
-9.34006e-20
-8.62659e-20
-6.91269e-20
-4.91888e-20
-3.08033e-20
-1.60878e-20
-5.61703e-21
9.56537e-22
4.42213e-21
5.68272e-21
5.56134e-21
4.71041e-21
3.59024e-21
2.48785e-21
1.55399e-21
8.44065e-22
3.54512e-22
5.11082e-23
-1.11404e-22
-1.77332e-22
-1.83889e-22
-1.59067e-22
-1.21916e-22
-8.40417e-23
-5.14886e-23
-2.65544e-23
-9.27717e-24
1.4637e-24
7.21207e-24
9.49782e-24
9.61677e-24
8.554e-24
6.99124e-24
5.35563e-24
3.88206e-24
2.67293e-24
1.74792e-24
1.08111e-24
6.26497e-25
3.33797e-25
1.57117e-25
5.8776e-26
1.01373e-26
-9.18494e-27
-1.28248e-26
-9.31228e-27
-3.57059e-27
1.86642e-27
5.93976e-27
8.42425e-27
9.50806e-27
9.53657e-27
8.87045e-27
7.81781e-27
6.61101e-27
5.40756e-27
4.30227e-27
3.3427e-27
2.54393e-27
1.90078e-27
1.39694e-27
1.01132e-27
7.22105e-28
5.09044e-28
3.54594e-28
2.4426e-28
1.66493e-28
1.12359e-28
7.51106e-29
4.97583e-29
3.26792e-29
2.12849e-29
1.37531e-29
8.81827e-30
5.61221e-30
3.54614e-30
2.22507e-30
1.38671e-30
8.58538e-31
5.28134e-31
3.22855e-31
1.96162e-31
1.18475e-31
7.11375e-32
4.24704e-32
2.52139e-32
1.4887e-32
8.74238e-33
5.10685e-33
2.96768e-33
1.71577e-33
9.86999e-34
5.64967e-34
3.21819e-34
1.82438e-34
1.02935e-34
5.7807e-35
3.23147e-35
1.79824e-35
9.96199e-36
5.49442e-36
3.01716e-36
1.64967e-36
8.98137e-37
4.86915e-37
2.62876e-37
1.41336e-37
7.56803e-38
4.03604e-38
2.14382e-38
1.13423e-38
5.97736e-39
3.13783e-39
1.64088e-39
8.54807e-40
4.43626e-40
2.2937e-40
1.18153e-40
6.06391e-41
3.1008e-41
1.57987e-41
8.02065e-42
4.05741e-42
2.04528e-42
1.02738e-42
5.14277e-43
2.56544e-43
1.27537e-43
6.31874e-44
3.12001e-44
1.5354e-44
7.53078e-45
3.68144e-45
1.79377e-45
8.71158e-46
4.21712e-46
2.03486e-46
9.7872e-47
4.69245e-47
2.24267e-47
1.06848e-47
5.07464e-48
2.40268e-48
1.13408e-48
5.3365e-49
2.50347e-49
1.17087e-49
5.45964e-50
2.53813e-50
1.17643e-50
5.43661e-51
2.505e-51
1.15082e-51
5.27158e-52
2.40774e-52
1.09653e-52
4.97946e-53
2.25476e-53
1.01807e-53
4.58381e-54
2.05801e-54
9.21405e-55
4.11376e-55
1.83155e-55
8.13198e-56
3.60062e-56
1.58989e-56
7.00118e-57
3.07465e-57
1.34662e-57
5.88197e-58
2.56234e-58
1.11325e-58
4.82383e-59
2.0847e-59
8.98566e-60
3.86293e-60
1.65634e-60
7.08355e-61
3.02153e-61
1.28553e-61
5.45536e-62
2.30915e-62
9.74927e-63
4.10573e-63
1.72469e-63
7.22663e-64
3.02045e-64
1.25928e-64
5.2371e-65
2.17262e-65
8.99086e-66
3.71151e-66
1.52839e-66
6.27853e-67
2.57291e-67
1.05181e-67
4.28943e-68
1.74508e-68
7.08258e-69
2.86766e-69
1.15832e-69
4.66768e-70
1.87648e-70
7.52601e-71
3.01137e-71
1.20212e-71
4.78759e-72
1.90229e-72
7.54101e-73
2.98249e-73
1.17687e-73
4.63323e-74
1.81989e-74
7.13206e-75
2.78868e-75
1.08793e-75
4.23466e-76
1.64461e-76
6.3728e-77
2.46393e-77
9.50511e-78
3.65866e-78
1.40515e-78
5.38477e-79
2.05899e-79
7.85577e-80
2.9907e-80
1.13608e-80
4.30626e-81
1.62874e-81
6.14698e-82
2.31492e-82
8.69917e-83
3.26204e-83
1.22059e-83
4.55752e-84
1.6981e-84
6.31362e-85
2.34248e-85
8.67279e-86
3.20427e-86
1.18138e-86
4.34654e-87
1.59585e-87
5.8471e-88
2.1379e-88
7.8008e-89
2.8405e-89
1.03219e-89
3.74311e-90
1.35463e-90
4.89239e-91
1.76336e-91
6.34277e-92
2.27688e-92
8.15689e-93
2.91633e-93
1.04058e-93
3.70552e-94
1.3169e-94
4.67084e-95
1.65338e-95
5.84107e-96
2.05946e-96
7.24701e-97
2.54513e-97
8.92096e-98
3.12078e-98
1.0896e-98
3.79688e-99
1.32052e-99
4.58373e-100
1.58802e-100
5.49107e-101
1.89506e-101
6.52763e-102
2.24418e-102
7.70072e-103
2.63742e-103
9.01573e-104
3.0761e-104
1.04756e-104
3.56073e-105
1.20804e-105
4.09081e-106
1.38269e-106
4.66474e-107
1.5708e-107
5.27967e-108
1.77128e-108
5.93149e-109
1.98261e-109
6.61473e-110
2.20287e-110
7.32263e-111
2.42969e-111
8.04715e-112
2.66037e-112
8.77913e-113
2.89184e-113
9.50845e-114
3.12077e-114
1.02242e-114
3.34363e-115
1.09151e-115
3.55678e-116
1.15694e-116
3.75657e-117
1.21759e-117
3.93946e-118
1.27234e-118
4.10207e-119
1.32019e-119
4.24136e-120
1.36023e-120
4.35467e-121
1.39168e-121
4.43983e-122
1.41396e-122
4.49522e-123
1.42663e-123
4.51982e-124
1.42949e-124
4.51325e-125
1.4225e-125
4.47577e-126
1.40585e-126
4.40827e-127
1.37992e-127
4.31223e-128
1.34527e-128
4.18969e-129
1.30262e-129
4.04315e-130
1.25282e-130
3.87548e-131
1.19683e-131
3.68988e-132
1.1357e-132
3.48972e-133
1.07051e-133
3.27847e-134
1.00237e-134
3.05961e-135
9.32362e-136
2.83652e-136
8.61529e-137
2.6124e-137
7.90855e-138
2.39024e-138
7.21232e-139
2.1727e-139
6.53455e-140
1.96212e-140
5.88205e-141
1.76047e-141
5.26048e-142
1.56935e-142
4.67428e-143
1.38998e-143
4.12675e-144
1.22323e-144
3.62005e-145
1.06961e-145
3.15533e-146
9.29333e-147
2.7328e-147
8.02334e-148
2.35188e-148
6.88315e-149
2.01129e-149
5.86783e-150
1.70922e-150
4.9709e-151
1.44342e-151
4.18474e-152
1.21134e-152
3.50098e-153
1.01026e-153
2.91075e-154
8.37341e-155
2.40506e-155
6.8973e-156
1.97497e-156
5.64644e-157
1.61183e-157
4.59407e-158
1.3074e-158
3.71498e-159
1.054e-159
2.98581e-160
8.44543e-161
2.38518e-161
6.72607e-162
1.89384e-162
5.32438e-163
1.49464e-163
4.1894e-164
1.1725e-164
3.27657e-165
9.14272e-166
2.5473e-166
7.08656e-167
1.96853e-167
5.46011e-168
1.51222e-168
4.18198e-169
1.15479e-169
3.18408e-170
8.76639e-171
2.41e-171
6.61563e-172
1.81337e-172
4.96323e-173
1.35645e-173
3.70176e-174
1.00873e-174
2.7448e-175
7.4578e-176
2.02339e-176
5.4817e-177
1.48293e-177
4.00588e-178
1.08055e-178
2.91049e-179
7.82817e-180
2.10246e-180
5.63861e-181
1.51005e-181
4.0382e-182
1.07836e-182
2.87552e-183
7.65685e-184
2.03594e-184
5.40582e-185
1.43331e-185
3.79493e-186
1.00335e-186
2.64901e-187
6.98398e-188
1.83869e-188
4.83397e-189
1.26908e-189
3.32707e-190
8.71017e-191
2.2771e-191
5.94473e-192
1.5498e-192
4.0347e-193
1.04892e-193
2.72315e-194
7.05988e-195
1.82777e-195
4.72544e-196
1.22001e-196
3.14547e-197
8.09859e-198
2.08226e-198
5.34642e-199
1.37087e-199
3.5102e-200
8.97584e-201
2.29205e-201
5.84493e-202
1.48848e-202
3.78544e-203
9.61388e-204
2.43833e-204
6.17584e-205
1.56211e-205
3.94586e-206
9.9537e-207
2.50751e-207
6.30834e-208
1.58491e-208
3.97658e-209
9.96399e-210
2.4933e-210
6.2307e-211
1.55496e-211
3.87544e-212
9.64594e-213
2.39768e-213
5.95197e-214
1.47555e-214
3.6532e-215
9.03268e-216
2.23042e-216
5.50027e-217
1.35459e-217
3.33168e-218
8.18363e-219
2.00752e-219
4.91816e-220
1.20331e-220
2.94026e-221
7.17508e-222
1.74864e-222
4.25609e-223
1.03456e-223
2.51151e-224
6.08909e-225
1.47437e-225
3.56533e-226
8.61057e-227
2.07684e-227
5.00282e-228
1.20356e-228
2.89176e-229
6.93904e-230
1.66295e-230
3.98019e-231
9.51421e-232
2.27136e-232
5.41561e-233
1.2896e-233
3.06696e-234
7.28469e-235
1.72807e-235
4.09414e-236
9.68755e-237
2.28937e-237
5.40343e-238
1.27372e-238
2.9987e-239
7.05092e-240
1.65582e-240
3.88359e-241
9.09726e-242
2.12836e-242
4.97318e-243
1.1606e-243
2.70513e-244
6.29729e-245
1.46413e-245
3.39988e-246
7.88514e-247
1.82649e-247
4.22558e-248
9.76381e-249
2.25328e-249
5.19369e-250
1.19564e-250
2.74911e-251
6.31318e-252
1.44801e-252
3.31713e-253
7.58964e-254
1.7344e-254
3.95863e-255
9.02426e-256
2.0547e-256
4.67258e-257
1.0613e-257
2.40763e-258
5.45525e-259
1.23456e-259
2.79053e-260
6.29992e-261
1.42056e-261
3.19932e-262
7.19672e-263
1.61692e-263
3.62844e-264
8.13261e-265
1.82062e-265
4.07087e-266
9.09153e-267
2.02799e-267
4.51833e-268
1.00548e-268
2.23485e-269
4.96144e-270
1.10015e-270
2.43657e-271
5.39004e-272
1.19094e-272
2.6283e-273
5.79358e-274
1.27557e-274
2.80513e-275
6.16152e-276
1.3518e-276
2.96228e-277
6.48381e-278
1.41751e-278
3.09536e-279
6.75134e-280
1.47082e-280
3.20055e-281
6.95636e-282
1.5102e-282
3.27477e-283
7.09287e-284
1.53447e-284
3.31584e-285
7.15689e-286
1.54295e-286
3.32261e-287
7.14668e-288
1.53543e-288
3.29498e-289
7.0628e-290
1.51217e-290
3.23391e-291
6.90806e-292
1.47396e-292
3.14138e-293
6.6874e-294
1.42199e-294
3.02025e-295
6.40758e-296
1.35784e-296
2.87417e-297
6.07689e-298
1.28339e-298
2.70733e-299
5.7047e-300
1.2007e-300
2.52432e-301
5.30107e-302
1.11197e-302
2.32988e-303
4.87626e-304
1.01941e-304
2.12876e-305
4.44034e-306
9.25165e-307
1.92546e-307
4.00282e-308
8.31213e-309
1.72414e-309
3.57232e-310
7.3934e-311
1.52846e-311
3.15633e-312
6.5107e-313
1.3415e-313
2.76105e-314
5.67646e-315
1.16573e-315
2.39134e-316
4.90011e-317
1.00298e-317
2.05069e-318
4.18824e-319
8.54487e-320
1.74109e-320
3.54245e-321
7.16395e-322
1.38338e-322
2.47033e-323
0
0
0
0
0
0
0
0
0
0
0
0
0
0
0
0
0
0
0
0
0
0
0
0
0
0
0
0
0
0
0
0
0
0
0
0
0
0
0
0
0
0
0
0
0
0
0
0
0
0
0
0
0
0
0
0
0
0
0
0
0
0
0
0
0
0
0
0
0
0
0
0
0
0
0
0
0
0
0
0
0
0
0
0
0
0
0
0
0
0
0
0
0
0
0
0
0
0
0
0
0
0
0
0
0
0
0
0
0
0
0
0
0
0
0
0
0
0
0
0
0
0
0
0
0
0
0
0
0
0
0
0
0
0
0
0
0
0
0
0
0
0
0
0
0
0
0
0
0
0
0
0
0
0
0
0
0
0
0
0
0
0
0
0
0
0
0
0
0
0
0
0
0
0
0
0
0
0
0
0
0
0
0
0
0
0
0
0
0
0
0
0
0
0
0
0
0
0
0
0
0
0
0
0
0
0
0
0
0
0
0
0
0
0
0
0
0
0
0
0
0
0
0
0
0
0
0
0
0
0
0
0
0
0
0
0
0
0
0
0
0
0
0
0
0
0
0
0
0
0
0
0
0
0
0
0
0
0
0
0
0
0
0
0
0
0
0
0
0
0
0
0
0
0
0
0
0
0
0
0
0
0
0
0
0
0
0
0
0
0
0
0
0
0
0
0
0
0
0
0
0
0
0
0
0
0
0
0
0
0
0
0
0
0
0
0
0
0
0
0
0
0
0
0
0
0
0
0
0
0
0
0
0
0
0
0
0
0
0
0
0
0
0
0
0
0
0
0
0
0
0
0
0
0
0
0
0
0
0
0
0
0
0
0
0
0
0
0
0
0
0
0
0
0
0
0
0
0
0
0
0
0
0
0
0
0
0
0
0
0
0
0
0
0
0
0
0
0
0
0
0
0
0
0
0
0
0
0
0
0
0
0
0
0
0
0
0
0
0
0
0
0
0
0
0
0
0
0
0
0
0
0
0
0
0
0
0
0
0
0
0
0
0
0
0
0
0
0
0
0
0
0
0
0
0
0
0
0
0
0
0
0
0
0
0
0
0
0
0
0
0
0
0
0
0
0
0
0
0
0
0
0
0
0
0
0
0
0
0
0
0
0
0
0
0
0
0
0
0
0
0
0
0
0
0
0
0
0
0
0
0
0
0
0
0
0
0
0
0
0
0
0
0
0
0
0
0
0
0
0
0
0
0
0
0
0
0
0
0
0
0
0
0
0
0
0
0
0
0.062787
0.0345542
0.0299574
0.025277
0.0221391
0.0200069
0.0184495
0.0172639
0.0163155
0.0155312
0.0148652
0.0142884
0.013781
0.0133294
0.0129237
0.0125563
0.0122216
0.0119149
0.0116326
0.0113716
0.0111293
0.0109037
0.0106929
0.0104953
0.0103096
0.0101346
0.00996925
0.00981273
0.00966419
0.00952296
0.0093884
0.00925997
0.00913718
0.00901959
0.00890681
0.00879848
0.0086943
0.00859397
0.00849724
0.00840387
0.00831366
0.00822641
0.00814195
0.00806012
0.00798077
0.00790377
0.007829
0.00775633
0.00768568
0.00761692
0.00754999
0.00748478
0.00742123
0.00735925
0.00729879
0.00723979
0.00718221
0.00712603
0.00707124
0.00701785
0.0069659
0.00691546
0.00686662
0.00681947
0.00677413
0.00673068
0.0066892
0.00664968
0.00661201
0.00657595
0.00654107
0.00650674
0.0064721
0.00643608
0.00639744
0.00635481
0.00630688
0.00625255
0.00619112
0.00612262
0.00604801
0.00596951
0.00589076
0.00581695
0.00575475
0.00571206
0.00569751
0.00571969
0.00578615
0.00590216
0.00606933
0.00628427
0.00653729
0.0068114
0.0070817
0.00731537
0.00747239
0.00750715
0.00737124
0.0070177
0.00640716
0.00551413
0.00433403
0.00289384
0.00126203
-0.00044392
-0.00205782
-0.00337993
-0.00420238
-0.00433658
-0.00363601
-0.00201435
0.000547989
0.00401008
0.00827901
0.0132238
0.0186873
0.0245019
0.030498
0.036502
0.0423449
0.0478835
0.0529914
0.0575335
0.06138
0.0644501
0.0667279
0.0682337
0.0689887
0.0690097
0.0683221
0.0669701
0.0650156
0.062533
0.0596051
0.0563201
0.0527706
0.0490502
0.0452498
0.0414525
0.0377306
0.0341425
0.030733
0.0275331
0.0245622
0.0218294
0.0193358
0.0170763
0.0150413
0.0132181
0.011592
0.0101476
0.00886896
0.00774047
0.00674713
0.00587476
0.00511016
0.00444121
0.00385683
0.00334704
0.00290283
0.00251618
0.00217995
0.00188779
0.00163413
0.00141402
0.00122314
0.0010577
0.00091437
0.000790252
0.000682812
0.00058984
0.000509415
0.000439864
0.000379734
0.000327761
0.00028285
0.00024405
0.000210537
0.000181596
0.000156608
0.000135037
0.00011642
0.000100354
8.64928e-05
7.4535e-05
6.42212e-05
5.53266e-05
4.76572e-05
4.10452e-05
3.53456e-05
3.04332e-05
2.61999e-05
2.25524e-05
1.941e-05
1.67031e-05
1.43718e-05
1.23641e-05
1.06355e-05
9.14725e-06
7.86618e-06
6.76359e-06
5.81474e-06
4.99831e-06
4.2959e-06
3.69169e-06
3.17201e-06
2.7251e-06
2.34082e-06
2.01044e-06
1.72644e-06
1.48234e-06
1.27257e-06
1.09232e-06
9.37468e-07
8.04446e-07
6.90195e-07
5.9208e-07
5.07835e-07
4.3551e-07
3.73428e-07
3.20145e-07
2.74421e-07
2.3519e-07
2.01535e-07
1.72668e-07
1.47911e-07
1.26683e-07
1.08483e-07
9.28825e-08
7.95115e-08
6.80536e-08
5.82366e-08
4.9827e-08
4.26241e-08
3.64558e-08
3.11746e-08
2.66536e-08
2.27842e-08
1.94731e-08
1.66402e-08
1.4217e-08
1.21446e-08
1.03725e-08
8.85771e-09
7.56295e-09
6.45631e-09
5.51033e-09
4.70141e-09
4.00943e-09
3.41738e-09
2.9109e-09
2.47794e-09
2.10818e-09
1.79269e-09
1.52367e-09
1.29443e-09
1.0995e-09
9.34799e-10
7.97442e-10
6.85229e-10
5.95743e-10
5.25359e-10