# vtk DataFile Version 2.0
FlowField
ASCII
DATASET STRUCTURED_GRID
DIMENSIONS 1602 1 52
POINTS 83304 float
0 0 0
0.1 0 0
0.2 0 0
0.3 0 0
0.4 0 0
0.5 0 0
0.6 0 0
0.7 0 0
0.8 0 0
0.9 0 0
1 0 0
1.1 0 0
1.2 0 0
1.3 0 0
1.4 0 0
1.5 0 0
1.6 0 0
1.7 0 0
1.8 0 0
1.9 0 0
2 0 0
2.1 0 0
2.2 0 0
2.3 0 0
2.4 0 0
2.5 0 0
2.6 0 0
2.7 0 0
2.8 0 0
2.9 0 0
3 0 0
3.1 0 0
3.2 0 0
3.3 0 0
3.4 0 0
3.5 0 0
3.6 0 0
3.7 0 0
3.8 0 0
3.9 0 0
4 0 0
4.1 0 0
4.2 0 0
4.3 0 0
4.4 0 0
4.5 0 0
4.6 0 0
4.7 0 0
4.8 0 0
4.9 0 0
5 0 0
5.1 0 0
5.2 0 0
5.3 0 0
5.4 0 0
5.5 0 0
5.6 0 0
5.7 0 0
5.8 0 0
5.9 0 0
6 0 0
6.1 0 0
6.2 0 0
6.3 0 0
6.4 0 0
6.5 0 0
6.6 0 0
6.7 0 0
6.8 0 0
6.9 0 0
7 0 0
7.1 0 0
7.2 0 0
7.3 0 0
7.4 0 0
7.5 0 0
7.6 0 0
7.7 0 0
7.8 0 0
7.9 0 0
8 0 0
8.1 0 0
8.2 0 0
8.3 0 0
8.4 0 0
8.5 0 0
8.6 0 0
8.7 0 0
8.8 0 0
8.9 0 0
9 0 0
9.1 0 0
9.2 0 0
9.3 0 0
9.4 0 0
9.5 0 0
9.6 0 0
9.7 0 0
9.8 0 0
9.9 0 0
10 0 0
10.1 0 0
10.2 0 0
10.3 0 0
10.4 0 0
10.5 0 0
10.6 0 0
10.7 0 0
10.8 0 0
10.9 0 0
11 0 0
11.1 0 0
11.2 0 0
11.3 0 0
11.4 0 0
11.5 0 0
11.6 0 0
11.7 0 0
11.8 0 0
11.9 0 0
12 0 0
12.1 0 0
12.2 0 0
12.3 0 0
12.4 0 0
12.5 0 0
12.6 0 0
12.7 0 0
12.8 0 0
12.9 0 0
13 0 0
13.1 0 0
13.2 0 0
13.3 0 0
13.4 0 0
13.5 0 0
13.6 0 0
13.7 0 0
13.8 0 0
13.9 0 0
14 0 0
14.1 0 0
14.2 0 0
14.3 0 0
14.4 0 0
14.5 0 0
14.6 0 0
14.7 0 0
14.8 0 0
14.9 0 0
15 0 0
15.1 0 0
15.2 0 0
15.3 0 0
15.4 0 0
15.5 0 0
15.6 0 0
15.7 0 0
15.8 0 0
15.9 0 0
16 0 0
16.1 0 0
16.2 0 0
16.3 0 0
16.4 0 0
16.5 0 0
16.6 0 0
16.7 0 0
16.8 0 0
16.9 0 0
17 0 0
17.1 0 0
17.2 0 0
17.3 0 0
17.4 0 0
17.5 0 0
17.6 0 0
17.7 0 0
17.8 0 0
17.9 0 0
18 0 0
18.1 0 0
18.2 0 0
18.3 0 0
18.4 0 0
18.5 0 0
18.6 0 0
18.7 0 0
18.8 0 0
18.9 0 0
19 0 0
19.1 0 0
19.2 0 0
19.3 0 0
19.4 0 0
19.5 0 0
19.6 0 0
19.7 0 0
19.8 0 0
19.9 0 0
20 0 0
20.1 0 0
20.2 0 0
20.3 0 0
20.4 0 0
20.5 0 0
20.6 0 0
20.7 0 0
20.8 0 0
20.9 0 0
21 0 0
21.1 0 0
21.2 0 0
21.3 0 0
21.4 0 0
21.5 0 0
21.6 0 0
21.7 0 0
21.8 0 0
21.9 0 0
22 0 0
22.1 0 0
22.2 0 0
22.3 0 0
22.4 0 0
22.5 0 0
22.6 0 0
22.7 0 0
22.8 0 0
22.9 0 0
23 0 0
23.1 0 0
23.2 0 0
23.3 0 0
23.4 0 0
23.5 0 0
23.6 0 0
23.7 0 0
23.8 0 0
23.9 0 0
24 0 0
24.1 0 0
24.2 0 0
24.3 0 0
24.4 0 0
24.5 0 0
24.6 0 0
24.7 0 0
24.8 0 0
24.9 0 0
25 0 0
25.1 0 0
25.2 0 0
25.3 0 0
25.4 0 0
25.5 0 0
25.6 0 0
25.7 0 0
25.8 0 0
25.9 0 0
26 0 0
26.1 0 0
26.2 0 0
26.3 0 0
26.4 0 0
26.5 0 0
26.6 0 0
26.7 0 0
26.8 0 0
26.9 0 0
27 0 0
27.1 0 0
27.2 0 0
27.3 0 0
27.4 0 0
27.5 0 0
27.6 0 0
27.7 0 0
27.8 0 0
27.9 0 0
28 0 0
28.1 0 0
28.2 0 0
28.3 0 0
28.4 0 0
28.5 0 0
28.6 0 0
28.7 0 0
28.8 0 0
28.9 0 0
29 0 0
29.1 0 0
29.2 0 0
29.3 0 0
29.4 0 0
29.5 0 0
29.6 0 0
29.7 0 0
29.8 0 0
29.9 0 0
30 0 0
30.1 0 0
30.2 0 0
30.3 0 0
30.4 0 0
30.5 0 0
30.6 0 0
30.7 0 0
30.8 0 0
30.9 0 0
31 0 0
31.1 0 0
31.2 0 0
31.3 0 0
31.4 0 0
31.5 0 0
31.6 0 0
31.7 0 0
31.8 0 0
31.9 0 0
32 0 0
32.1 0 0
32.2 0 0
32.3 0 0
32.4 0 0
32.5 0 0
32.6 0 0
32.7 0 0
32.8 0 0
32.9 0 0
33 0 0
33.1 0 0
33.2 0 0
33.3 0 0
33.4 0 0
33.5 0 0
33.6 0 0
33.7 0 0
33.8 0 0
33.9 0 0
34 0 0
34.1 0 0
34.2 0 0
34.3 0 0
34.4 0 0
34.5 0 0
34.6 0 0
34.7 0 0
34.8 0 0
34.9 0 0
35 0 0
35.1 0 0
35.2 0 0
35.3 0 0
35.4 0 0
35.5 0 0
35.6 0 0
35.7 0 0
35.8 0 0
35.9 0 0
36 0 0
36.1 0 0
36.2 0 0
36.3 0 0
36.4 0 0
36.5 0 0
36.6 0 0
36.7 0 0
36.8 0 0
36.9 0 0
37 0 0
37.1 0 0
37.2 0 0
37.3 0 0
37.4 0 0
37.5 0 0
37.6 0 0
37.7 0 0
37.8 0 0
37.9 0 0
38 0 0
38.1 0 0
38.2 0 0
38.3 0 0
38.4 0 0
38.5 0 0
38.6 0 0
38.7 0 0
38.8 0 0
38.9 0 0
39 0 0
39.1 0 0
39.2 0 0
39.3 0 0
39.4 0 0
39.5 0 0
39.6 0 0
39.7 0 0
39.8 0 0
39.9 0 0
40 0 0
40.1 0 0
40.2 0 0
40.3 0 0
40.4 0 0
40.5 0 0
40.6 0 0
40.7 0 0
40.8 0 0
40.9 0 0
41 0 0
41.1 0 0
41.2 0 0
41.3 0 0
41.4 0 0
41.5 0 0
41.6 0 0
41.7 0 0
41.8 0 0
41.9 0 0
42 0 0
42.1 0 0
42.2 0 0
42.3 0 0
42.4 0 0
42.5 0 0
42.6 0 0
42.7 0 0
42.8 0 0
42.9 0 0
43 0 0
43.1 0 0
43.2 0 0
43.3 0 0
43.4 0 0
43.5 0 0
43.6 0 0
43.7 0 0
43.8 0 0
43.9 0 0
44 0 0
44.1 0 0
44.2 0 0
44.3 0 0
44.4 0 0
44.5 0 0
44.6 0 0
44.7 0 0
44.8 0 0
44.9 0 0
45 0 0
45.1 0 0
45.2 0 0
45.3 0 0
45.4 0 0
45.5 0 0
45.6 0 0
45.7 0 0
45.8 0 0
45.9 0 0
46 0 0
46.1 0 0
46.2 0 0
46.3 0 0
46.4 0 0
46.5 0 0
46.6 0 0
46.7 0 0
46.8 0 0
46.9 0 0
47 0 0
47.1 0 0
47.2 0 0
47.3 0 0
47.4 0 0
47.5 0 0
47.6 0 0
47.7 0 0
47.8 0 0
47.9 0 0
48 0 0
48.1 0 0
48.2 0 0
48.3 0 0
48.4 0 0
48.5 0 0
48.6 0 0
48.7 0 0
48.8 0 0
48.9 0 0
49 0 0
49.1 0 0
49.2 0 0
49.3 0 0
49.4 0 0
49.5 0 0
49.6 0 0
49.7 0 0
49.8 0 0
49.9 0 0
50 0 0
50.1 0 0
50.2 0 0
50.3 0 0
50.4 0 0
50.5 0 0
50.6 0 0
50.7 0 0
50.8 0 0
50.9 0 0
51 0 0
51.1 0 0
51.2 0 0
51.3 0 0
51.4 0 0
51.5 0 0
51.6 0 0
51.7 0 0
51.8 0 0
51.9 0 0
52 0 0
52.1 0 0
52.2 0 0
52.3 0 0
52.4 0 0
52.5 0 0
52.6 0 0
52.7 0 0
52.8 0 0
52.9 0 0
53 0 0
53.1 0 0
53.2 0 0
53.3 0 0
53.4 0 0
53.5 0 0
53.6 0 0
53.7 0 0
53.8 0 0
53.9 0 0
54 0 0
54.1 0 0
54.2 0 0
54.3 0 0
54.4 0 0
54.5 0 0
54.6 0 0
54.7 0 0
54.8 0 0
54.9 0 0
55 0 0
55.1 0 0
55.2 0 0
55.3 0 0
55.4 0 0
55.5 0 0
55.6 0 0
55.7 0 0
55.8 0 0
55.9 0 0
56 0 0
56.1 0 0
56.2 0 0
56.3 0 0
56.4 0 0
56.5 0 0
56.6 0 0
56.7 0 0
56.8 0 0
56.9 0 0
57 0 0
57.1 0 0
57.2 0 0
57.3 0 0
57.4 0 0
57.5 0 0
57.6 0 0
57.7 0 0
57.8 0 0
57.9 0 0
58 0 0
58.1 0 0
58.2 0 0
58.3 0 0
58.4 0 0
58.5 0 0
58.6 0 0
58.7 0 0
58.8 0 0
58.9 0 0
59 0 0
59.1 0 0
59.2 0 0
59.3 0 0
59.4 0 0
59.5 0 0
59.6 0 0
59.7 0 0
59.8 0 0
59.9 0 0
60 0 0
60.1 0 0
60.2 0 0
60.3 0 0
60.4 0 0
60.5 0 0
60.6 0 0
60.7 0 0
60.8 0 0
60.9 0 0
61 0 0
61.1 0 0
61.2 0 0
61.3 0 0
61.4 0 0
61.5 0 0
61.6 0 0
61.7 0 0
61.8 0 0
61.9 0 0
62 0 0
62.1 0 0
62.2 0 0
62.3 0 0
62.4 0 0
62.5 0 0
62.6 0 0
62.7 0 0
62.8 0 0
62.9 0 0
63 0 0
63.1 0 0
63.2 0 0
63.3 0 0
63.4 0 0
63.5 0 0
63.6 0 0
63.7 0 0
63.8 0 0
63.9 0 0
64 0 0
64.1 0 0
64.2 0 0
64.3 0 0
64.4 0 0
64.5 0 0
64.6 0 0
64.7 0 0
64.8 0 0
64.9 0 0
65 0 0
65.1 0 0
65.2 0 0
65.3 0 0
65.4 0 0
65.5 0 0
65.6 0 0
65.7 0 0
65.8 0 0
65.9 0 0
66 0 0
66.1 0 0
66.2 0 0
66.3 0 0
66.4 0 0
66.5 0 0
66.6 0 0
66.7 0 0
66.8 0 0
66.9 0 0
67 0 0
67.1 0 0
67.2 0 0
67.3 0 0
67.4 0 0
67.5 0 0
67.6 0 0
67.7 0 0
67.8 0 0
67.9 0 0
68 0 0
68.1 0 0
68.2 0 0
68.3 0 0
68.4 0 0
68.5 0 0
68.6 0 0
68.7 0 0
68.8 0 0
68.9 0 0
69 0 0
69.1 0 0
69.2 0 0
69.3 0 0
69.4 0 0
69.5 0 0
69.6 0 0
69.7 0 0
69.8 0 0
69.9 0 0
70 0 0
70.1 0 0
70.2 0 0
70.3 0 0
70.4 0 0
70.5 0 0
70.6 0 0
70.7 0 0
70.8 0 0
70.9 0 0
71 0 0
71.1 0 0
71.2 0 0
71.3 0 0
71.4 0 0
71.5 0 0
71.6 0 0
71.7 0 0
71.8 0 0
71.9 0 0
72 0 0
72.1 0 0
72.2 0 0
72.3 0 0
72.4 0 0
72.5 0 0
72.6 0 0
72.7 0 0
72.8 0 0
72.9 0 0
73 0 0
73.1 0 0
73.2 0 0
73.3 0 0
73.4 0 0
73.5 0 0
73.6 0 0
73.7 0 0
73.8 0 0
73.9 0 0
74 0 0
74.1 0 0
74.2 0 0
74.3 0 0
74.4 0 0
74.5 0 0
74.6 0 0
74.7 0 0
74.8 0 0
74.9 0 0
75 0 0
75.1 0 0
75.2 0 0
75.3 0 0
75.4 0 0
75.5 0 0
75.6 0 0
75.7 0 0
75.8 0 0
75.9 0 0
76 0 0
76.1 0 0
76.2 0 0
76.3 0 0
76.4 0 0
76.5 0 0
76.6 0 0
76.7 0 0
76.8 0 0
76.9 0 0
77 0 0
77.1 0 0
77.2 0 0
77.3 0 0
77.4 0 0
77.5 0 0
77.6 0 0
77.7 0 0
77.8 0 0
77.9 0 0
78 0 0
78.1 0 0
78.2 0 0
78.3 0 0
78.4 0 0
78.5 0 0
78.6 0 0
78.7 0 0
78.8 0 0
78.9 0 0
79 0 0
79.1 0 0
79.2 0 0
79.3 0 0
79.4 0 0
79.5 0 0
79.6 0 0
79.7 0 0
79.8 0 0
79.9 0 0
80 0 0
80.1 0 0
80.2 0 0
80.3 0 0
80.4 0 0
80.5 0 0
80.6 0 0
80.7 0 0
80.8 0 0
80.9 0 0
81 0 0
81.1 0 0
81.2 0 0
81.3 0 0
81.4 0 0
81.5 0 0
81.6 0 0
81.7 0 0
81.8 0 0
81.9 0 0
82 0 0
82.1 0 0
82.2 0 0
82.3 0 0
82.4 0 0
82.5 0 0
82.6 0 0
82.7 0 0
82.8 0 0
82.9 0 0
83 0 0
83.1 0 0
83.2 0 0
83.3 0 0
83.4 0 0
83.5 0 0
83.6 0 0
83.7 0 0
83.8 0 0
83.9 0 0
84 0 0
84.1 0 0
84.2 0 0
84.3 0 0
84.4 0 0
84.5 0 0
84.6 0 0
84.7 0 0
84.8 0 0
84.9 0 0
85 0 0
85.1 0 0
85.2 0 0
85.3 0 0
85.4 0 0
85.5 0 0
85.6 0 0
85.7 0 0
85.8 0 0
85.9 0 0
86 0 0
86.1 0 0
86.2 0 0
86.3 0 0
86.4 0 0
86.5 0 0
86.6 0 0
86.7 0 0
86.8 0 0
86.9 0 0
87 0 0
87.1 0 0
87.2 0 0
87.3 0 0
87.4 0 0
87.5 0 0
87.6 0 0
87.7 0 0
87.8 0 0
87.9 0 0
88 0 0
88.1 0 0
88.2 0 0
88.3 0 0
88.4 0 0
88.5 0 0
88.6 0 0
88.7 0 0
88.8 0 0
88.9 0 0
89 0 0
89.1 0 0
89.2 0 0
89.3 0 0
89.4 0 0
89.5 0 0
89.6 0 0
89.7 0 0
89.8 0 0
89.9 0 0
90 0 0
90.1 0 0
90.2 0 0
90.3 0 0
90.4 0 0
90.5 0 0
90.6 0 0
90.7 0 0
90.8 0 0
90.9 0 0
91 0 0
91.1 0 0
91.2 0 0
91.3 0 0
91.4 0 0
91.5 0 0
91.6 0 0
91.7 0 0
91.8 0 0
91.9 0 0
92 0 0
92.1 0 0
92.2 0 0
92.3 0 0
92.4 0 0
92.5 0 0
92.6 0 0
92.7 0 0
92.8 0 0
92.9 0 0
93 0 0
93.1 0 0
93.2 0 0
93.3 0 0
93.4 0 0
93.5 0 0
93.6 0 0
93.7 0 0
93.8 0 0
93.9 0 0
94 0 0
94.1 0 0
94.2 0 0
94.3 0 0
94.4 0 0
94.5 0 0
94.6 0 0
94.7 0 0
94.8 0 0
94.9 0 0
95 0 0
95.1 0 0
95.2 0 0
95.3 0 0
95.4 0 0
95.5 0 0
95.6 0 0
95.7 0 0
95.8 0 0
95.9 0 0
96 0 0
96.1 0 0
96.2 0 0
96.3 0 0
96.4 0 0
96.5 0 0
96.6 0 0
96.7 0 0
96.8 0 0
96.9 0 0
97 0 0
97.1 0 0
97.2 0 0
97.3 0 0
97.4 0 0
97.5 0 0
97.6 0 0
97.7 0 0
97.8 0 0
97.9 0 0
98 0 0
98.1 0 0
98.2 0 0
98.3 0 0
98.4 0 0
98.5 0 0
98.6 0 0
98.7 0 0
98.8 0 0
98.9 0 0
99 0 0
99.1 0 0
99.2 0 0
99.3 0 0
99.4 0 0
99.5 0 0
99.6 0 0
99.7 0 0
99.8 0 0
99.9 0 0
100 0 0
100.1 0 0
100.2 0 0
100.3 0 0
100.4 0 0
100.5 0 0
100.6 0 0
100.7 0 0
100.8 0 0
100.9 0 0
101 0 0
101.1 0 0
101.2 0 0
101.3 0 0
101.4 0 0
101.5 0 0
101.6 0 0
101.7 0 0
101.8 0 0
101.9 0 0
102 0 0
102.1 0 0
102.2 0 0
102.3 0 0
102.4 0 0
102.5 0 0
102.6 0 0
102.7 0 0
102.8 0 0
102.9 0 0
103 0 0
103.1 0 0
103.2 0 0
103.3 0 0
103.4 0 0
103.5 0 0
103.6 0 0
103.7 0 0
103.8 0 0
103.9 0 0
104 0 0
104.1 0 0
104.2 0 0
104.3 0 0
104.4 0 0
104.5 0 0
104.6 0 0
104.7 0 0
104.8 0 0
104.9 0 0
105 0 0
105.1 0 0
105.2 0 0
105.3 0 0
105.4 0 0
105.5 0 0
105.6 0 0
105.7 0 0
105.8 0 0
105.9 0 0
106 0 0
106.1 0 0
106.2 0 0
106.3 0 0
106.4 0 0
106.5 0 0
106.6 0 0
106.7 0 0
106.8 0 0
106.9 0 0
107 0 0
107.1 0 0
107.2 0 0
107.3 0 0
107.4 0 0
107.5 0 0
107.6 0 0
107.7 0 0
107.8 0 0
107.9 0 0
108 0 0
108.1 0 0
108.2 0 0
108.3 0 0
108.4 0 0
108.5 0 0
108.6 0 0
108.7 0 0
108.8 0 0
108.9 0 0
109 0 0
109.1 0 0
109.2 0 0
109.3 0 0
109.4 0 0
109.5 0 0
109.6 0 0
109.7 0 0
109.8 0 0
109.9 0 0
110 0 0
110.1 0 0
110.2 0 0
110.3 0 0
110.4 0 0
110.5 0 0
110.6 0 0
110.7 0 0
110.8 0 0
110.9 0 0
111 0 0
111.1 0 0
111.2 0 0
111.3 0 0
111.4 0 0
111.5 0 0
111.6 0 0
111.7 0 0
111.8 0 0
111.9 0 0
112 0 0
[...]
POINT_DATA 83304

SCALARS pressure float 1
LOOKUP_TABLE default
0
0
0
0
0
0
0
0
0
0
0
0
0
0
0
0
0
0
0
0
0
0
0
0
0
0
0
0
0
0
0
0
0
0
0
0
0
0
0
0
0
0
0
0
0
0
0
0
0
0
0
0
0
0
0
0
0
0
0
0
0
0
0
0
0
0
0
0
0
0
0
0
0
0
0
0
0
0
0
0
0
0
0
0
0
0
0
0
0
0
0
0
0
0
0
0
0
0
0
0
0
0
0
0
0
0
0
0
0
0
0
0
0
0
0
0
0
0
0
0
0
0
0
0
0
0
0
0
0
0
0
0
0
0
0
0
0
0
0
0
0
0
0
0
0
0
0
0
0
0
0
0
0
0
0
0
0
0
0
0
0
0
0
0
0
0
0
0
0
0
0
0
0
0
0
0
0
0
0
0
0
0
0
0
0
0
0
0
0
0
0
0
0
0
0
0
0
0
0
0
0
0
0
0
0
0
0
0
0
0
0
0
0
0
0
0
0
0
0
0
0
0
0
0
0
0
0
0
0
0
0
0
0
0
0
0
0
0
0
0
0
0
0
0
0
0
0
0
0
0
0
0
0
0
0
0
0
0
0
0
0
0
0
0
0
0
0
0
0
0
0
0
0
0
0
0
0
0
0
0
0
0
0
0
0
0
0
0
0
0
0
0
0
0
0
0
0
0
0
0
0
0
0
0
0
0
0
0
0
0
0
0
0
0
0
0
0
0
0
0
0
0
0
0
0
0
0
0
0
0
0
0
0
0
0
0
0
0
0
0
0
0
0
0
0
0
0
0
0
0
0
0
0
0
0
0
0
0
0
0
0
0
0
0
0
0
0
0
0
0
0
0
0
0
0
0
0
0
0
0
0
0
0
0
0
0
0
0
0
0
0
0
0
0
0
0
0
0
0
0
0
0
0
0
0
0
0
0
0
0
0
0
0
0
0
0
0
0
0
0
0
0
0
0
0
0
0
0
0
0
0
0
0
0
0
0
0
0
0
0
0
0
0
0
0
0
0
0
0
0
0
0
0
0
0
0
0
0
0
0
0
0
0
0
0
0
0
0
0
0
0
0
0
0
0
0
0
0
0
0
0
0
0
0
0
0
0
0
0
0
0
0
0
0
0
0
0
0
0
0
0
0
0
0
0
0
0
0
0
0
0
0
0
0
0
0
0
0
0
0
0
0
0
0
0
0
0
0
0
0
0
0
0
0
0
0
0
0
0
0
0
0
0
0
0
0
0
0
0
0
0
0
0
0
0
0
0
0
0
0
0
0
0
0
0
0
0
0
0
0
0
0
0
0
0
0
0
0
0
0
0
0
0
0
0
0
0
0
0
0
0
0
0
0
0
0
0
0
0
0
0
0
0
0
0
0
0
0
0
0
0
0
0
0
0
0
0
0
0
0
0
0
0
0
0
0
0
0
0
0
0
0
0
0
0
0
0
0
0
0
0
0
0
0
0
0
0
0
0
0
0
0
0
0
0
0
0
0
0
0
0
0
0
0
0
0
0
0
0
0
0
0
0
0
0
0
0
0
0
0
0
0
0
0
0
0
0
0
0
0
0
0
0
0
0
0
0
0
0
0
0
0
0
0
0
0
0
0
0
0
0
0
0
0
0
0
0
0
0
0
0
0
0
0
0
0
0
0
0
0
0
0
0
0
0
0
0
0
0
0
0
0
0
0
0
0
0
0
0
0
0
0
0
0
0
0
0
0
0
0
0
0
0
0
0
0
0
0
0
0
0
0
0
0
0
0
0
0
0
0
0
0
0
0
0
0
0
0
0
0
0
0
0
0
0
0
0
0
0
0
0
0
0
0
0
0
0
0
0
0
0
0
0
0
0
0
0
0
0
0
0
0
0
0
0
0
0
0
0
0
0
0
0
0
0
0
0
0
0
0
0
0
0
0
0
0
0
0
0
0
0
0
0
0
0
0
0
0
0
0
0
0
0
0
0
0
0
0
0
0
0
0
0
0
0
0
0
0
0
0
0
0
0
0
0
0
0
0
0
0
0
0
0
0
0
0
0
0
0
0
0
0
0
0
0
0
0
0
0
0
0
0
0
0
0
0
0
0
0
0
0
0
0
0
0
0
0
0
0
0
0
0
0
0
0
0
0
0
0
0
0
0
0
0
0
0
0
0
0
0
0
0
0
0
0
0
0
0
0
0
0
0
0
0
0
0
0
0
0
0
0
0
0
0
0
0
0
0
0
0
0
0
0
0
0
0
0
0
0
0
0
0
0
0
0
0
0
0
0
0
0
0
0
0
0
0
0
0
0
0
0
0
0
0
0
0
0
0
0
0
0
0
0
0
0
0
0
0
0
0
0
0
0
0
0
0
0
0
0
0
0
0
0
0
0
0
0
0
0
0
0
0
0
0
0
0
0
0
0
0
0
0
0
0
0
0
0
0
0
0
0
0
0
0
0
0
0
0
0
0
0
0
0
0
0
0
0
0
0
0
0
0
0
0
0
0
0
0
0
0
0
0
0
0
0
0
0
0
0
0
0
0
0
0
0
0
0
0
0
0
0
0
0
0
0
0
0
0
0
0
0
0
0
0
0
0
0
0
0
0
0
0
0
0
0
0
0
0
0
0
0
0
0
0
0
0
0
0
0
0
0
0
0
0
0
0
0
0
0
0
0
0
0
0
0
0
0
0
0
0
0
0
0
0
0
0
0
0
0
0
0
0
0
0
0
0
0
0
0
0
0
0
0
0
0
0
0
0
0
0
0
0
0
0
0
0
0
0
0
0
0
0
0
0
0
0
0
0
0
0
0
0
0
0
0
0
0
0
0
0
0
0
0
0
0
0
0
0
0
0
0
0
0
0
0
0
0
0
0
0
0
0
0
0
0
0
0
0
0
0
0
0
0
0
0
0
0
0
0
0
0
0
0
0
0
0
0
0
0
0
0
0
0
0
0
0
0
0
0
0
0
0
0
0
0
0
0
0
0
0
0
0
0
0
0
0
0
0
0
0
0
0
0
0
0
0
0
0
0
0
0
0
0
0
0
0
0
0
0
0
0
0
0
0
0
0
0
0
0
0
0
0
0
0
0
0
0
0
0
0
0
0
0
0
0
0
0
0
0
0
0
0
0
0
0
0
0
0
0
0
0
0
0
0
0
0
0
0
0
0
0
0
0
0
0
0
0
0
0
0
0
0
0
0
0
0
0
0
0
0
0
0
0
0
0
0
0
0
0
0
0
0
0
0
0
0
0
0
0
0
0
0
0
0
0
0
0
0
0
0
0
0
0
0
0
0
0
0
0
0
0
0
0
0
0
0
0
0
0
0
0
0
0
0
0
0
0
0
0
0
0
0
0
0
0
0
0
0
0
0
0
0
0
0
0
0
0
0
0
0
0
0
0
0
0
0
0
0
0
0
0
0
0
0
0
0
0
0
0
0
0
0
0
0
0
0
0
0
0
0
0
0
0
0
0
0
0
0
0
0
0
0
0
0
0
0
0
0
0
0
0
0
0
0
0
0
0
0
0
0
0
0
0
0
0
0
0
0
0
0
0
0
0
0
0
0
0
0
0
0
0
0
0
0
0
0
0
0
0
0
0
0
0
0
0
0
0
0
0
0
0
0
0
0
0
0
0
0
0
0
0
0
0
0.0776415
0.052903
0.0436505
0.0357426
0.03048
0.0271088
0.0248019
0.023116
0.0218008
0.0207277
0.0198235
0.0190436
0.0183596
0.0177519
0.0172066
0.0167134
0.0162643
0.0158532
0.0154749
0.0151254
0.0148012
0.0144993
0.0142174
0.0139533
0.0137051
0.0134714
0.0132506
0.0130416
0.0128434
0.0126549
0.0124753
0.0123039
0.0121401
0.0119833
0.0118328
0.0116884
0.0115494
0.0114156
0.0112866
0.0111621
0.0110418
0.0109254
0.0108128
0.0107037
0.0105979
0.0104952
0.0103955
0.0102987
0.0102045
0.0101129
0.0100238
0.00993702
0.0098525
0.00977015
0.00968989
0.00961164
0.00953532
0.00946088
0.00938826
0.00931739
0.00924823
0.00918072
0.00911481
0.00905048
0.00898766
0.00892634
0.00886646
0.008808
0.00875092
0.0086952
0.00864079
0.00858768
0.00853584
0.00848523
0.00843585
0.00838765
0.00834062
0.00829473
0.00824996
0.00820629
0.0081637
0.00812217
0.00808167
0.00804218
0.00800369
0.00796618
0.00792962
0.007894
0.00785929
0.00782548
0.00779256
0.00776049
0.00772927
0.00769887
0.00766929
0.00764049
0.00761246
0.00758519
0.00755865
0.00753284
0.00750774
0.00748332
0.00745957
0.00743648
0.00741403
0.00739221
0.00737099
0.00735037
0.00733033
0.00731086
0.00729193
0.00727354
0.00725568
0.00723832
0.00722145
0.00720507
0.00718915
0.00717368
0.00715866
0.00714407
0.0071299
0.00711614
0.00710278
0.00708981
0.00707722
0.007065
0.00705316
0.00704167
0.00703053
0.00701973
0.00700925
0.00699909
0.00698924
0.00697967
0.00697038
0.00696135
0.00695258
0.00694407
0.0069358
0.0069278
0.00692005
0.00691259
0.00690541
0.00689852
0.00689194
0.00688566
0.00687964
0.00687385
0.00686822
0.00686267
0.00685709
0.00685138
0.00684545
0.00683923
0.00683274
0.00682608
0.00681948
0.00681334
0.00680824
0.00680494
0.00680436
0.00680753
0.00681546
0.00682904
0.00684883
0.0068748
0.00690609
0.00694069
0.00697519
0.0070045
0.00702176
0.00701821
0.00698344
0.00690571
0.00677268
0.00657236
0.00629458
0.00593274
0.00548604
0.00496199
0.00437918
0.0037698
0.00318173
0.00267942
0.0023429
0.00226441
0.00254229
0.00327274
0.00454026
0.00640766
0.00890852
0.0120433
0.0157776
0.0200428
0.024744
0.0297677
0.0349837
0.0402479
0.0454186
0.0503669
0.0549599
0.0590498
0.0625042
0.0652583
0.067322
0.068735
0.0695195
0.0696752
0.0692033
0.0681279
0.0664998
0.0643881
0.0618701
0.0590251
0.0559308
0.0526618
0.0492879
0.045873
0.0424735
0.0391376
0.0359051
0.0328069
0.029866
0.0270982
0.0245126
0.0221131
0.0198994
0.0178674
0.0160107
0.0143211
0.0127889
0.0114039
0.0101554
0.0090328
0.00802563
0.00712379
0.00631768
0.00559829
0.00495719
0.00438657
0.00387926
0.0034287
0.00302891
0.00267446
0.00236045
0.00208245
0.00183649
0.00161901
0.0014268
0.00125701
0.00110709
0.000974774
0.00085804
0.000755089
0.000664324
0.000584329
0.000513848
0.000451766
0.000397099
0.000348972
0.000306615
0.000269344
0.000236557
0.00020772
0.000182364
0.000160073
0.00014048
0.000123263
0.000108136
9.48489e-05
8.31795e-05
7.29329e-05
6.39375e-05
5.60418e-05
4.91128e-05
4.30331e-05
3.76997e-05
3.30217e-05
2.89193e-05
2.53224e-05
2.21692e-05
1.94054e-05
1.69834e-05
1.48613e-05
1.30022e-05
1.13739e-05
9.94787e-06
8.69924e-06
7.60612e-06
6.64931e-06
5.81194e-06
5.07922e-06
4.43817e-06
3.87743e-06
3.387e-06
2.95815e-06
2.58319e-06
2.25542e-06
1.96893e-06
1.71857e-06
1.49982e-06
1.30871e-06
1.14178e-06
9.95988e-07
8.68683e-07
7.57537e-07
6.60513e-07
5.75829e-07
5.01928e-07
4.37447e-07
3.81193e-07
3.32125e-07
2.8933e-07
2.52012e-07
2.19476e-07
1.91113e-07
1.66391e-07
1.44846e-07
1.26073e-07
1.09717e-07
9.54691e-08
8.30599e-08
7.22533e-08
6.28439e-08
5.46522e-08
4.75215e-08
4.13155e-08
3.59148e-08
3.12158e-08
2.71279e-08
2.3572e-08
2.04794e-08
1.77901e-08
1.54518e-08
1.3419e-08
1.16521e-08
1.01164e-08
8.78199e-09
7.62253e-09
6.61526e-09
5.74033e-09
4.98044e-09
4.32057e-09
3.74763e-09
3.25023e-09
2.81848e-09
2.44375e-09
2.11857e-09
1.83642e-09
1.59163e-09
1.3793e-09
1.19513e-09
1.03542e-09
8.9694e-10
7.76878e-10
6.728e-10
5.8259e-10
5.04411e-10
4.36667e-10
3.77972e-10
3.27126e-10
2.83083e-10
2.44939e-10
2.11908e-10
1.83308e-10
1.58547e-10
1.37114e-10
1.18564e-10
1.0251e-10
8.86191e-11
7.66008e-11
6.62041e-11
5.72113e-11
4.94339e-11
4.27084e-11
3.68933e-11
3.18661e-11
2.75204e-11
2.37644e-11
2.05185e-11
1.77138e-11
1.52905e-11
1.31971e-11
1.1389e-11
9.8273e-12
8.47873e-12
7.31431e-12
6.30903e-12
5.44125e-12
4.69225e-12
4.04585e-12
3.48806e-12
3.00681e-12
2.59164e-12
2.23351e-12
1.92464e-12
1.65827e-12
1.4286e-12
1.23058e-12
1.05988e-12
9.12743e-13
7.85936e-13
6.76662e-13
5.82509e-13
5.01394e-13
4.31522e-13
3.7134e-13
3.19511e-13
2.74882e-13
2.36457e-13
2.03378e-13
1.74905e-13
1.50399e-13
1.2931e-13
1.11164e-13
9.5553e-14
8.21236e-14
7.05726e-14
6.06386e-14
5.20963e-14
4.47517e-14
3.84376e-14
3.30102e-14
2.83455e-14
2.43368e-14
2.08924e-14
1.79331e-14
1.5391e-14
1.32074e-14
1.13322e-14
9.72189e-15
8.33928e-15
7.15233e-15
6.13348e-15
5.25904e-15
4.50865e-15
3.8648e-15
3.31246e-15
2.8387e-15
2.43242e-15
2.08409e-15
1.78552e-15
1.52967e-15
1.31044e-15
1.12262e-15
9.61652e-16
8.23638e-16
7.05207e-16
6.03482e-16
5.16023e-16
4.40776e-16
3.76028e-16
3.2035e-16
2.72559e-16
2.31679e-16
1.96922e-16
1.67664e-16
1.43414e-16
1.23753e-16
1.08242e-16
9.63008e-17
8.71036e-17
7.95268e-17
7.221e-17
6.37524e-17
5.30353e-17
3.95987e-17
2.39589e-17
7.73128e-18
-6.54804e-18
-1.59363e-17
-1.78623e-17
-1.09901e-17
4.08414e-18
2.45546e-17
4.57215e-17
6.19191e-17
6.78909e-17
6.02783e-17
3.88055e-17
6.77474e-18
-2.93634e-17
-6.13535e-17
-8.11157e-17
-8.2875e-17
-6.48639e-17
-3.00941e-17
1.40799e-17
5.75654e-17
8.99403e-17
1.0306e-16
9.31821e-17
6.20276e-17
1.64811e-17
-3.30261e-17
-7.50422e-17
-9.98885e-17
-1.02004e-16
-8.12461e-17
-4.2841e-17
3.99209e-18
4.83508e-17
8.02962e-17
9.31655e-17
8.49942e-17
5.87412e-17
2.13243e-17
-1.82296e-17
-5.10152e-17
-7.0297e-17
-7.28955e-17
-5.96315e-17
-3.47999e-17
-4.88247e-18
2.31268e-17
4.33523e-17
5.22454e-17
4.91325e-17
3.60471e-17
1.69651e-17
-3.30955e-18
-2.03111e-17
-3.08547e-17
-3.357e-17
-2.89579e-17
-1.90217e-17
-6.61743e-18
5.29167e-18
1.42933e-17
1.89633e-17
1.90185e-17
1.51951e-17
8.92476e-18
1.91324e-18
-4.26993e-18
-8.50129e-18
-1.0263e-17
-9.64356e-18
-7.20883e-18
-3.7942e-18
-2.78714e-19
2.60715e-18
4.40496e-18
4.96998e-18
4.43834e-18
3.14171e-18
1.49853e-18
-9.03443e-20
-1.32031e-18
-2.02478e-18
-2.17933e-18
-1.87534e-18
-1.27569e-18
-5.65551e-19
9.02214e-20
5.75703e-19
8.35896e-19
8.73447e-19
7.34398e-19
4.88533e-19
2.09665e-19
-4.00717e-20
-2.19695e-19
-3.12217e-19
-3.21961e-19
-2.68271e-19
-1.7784e-19
-7.75484e-20
1.08648e-20
7.37072e-20
1.0587e-19
1.09524e-19
9.17274e-20
6.17219e-20
2.85404e-20
-6.84402e-22
-2.15682e-20
-3.25479e-20
-3.43843e-20
-2.93533e-20
-2.03744e-20
-1.02664e-20
-1.23859e-21
5.35203e-21
9.007e-21
9.92618e-21
8.76114e-21
6.35604e-21
3.53004e-21
9.30552e-22
-1.03582e-21
-2.20536e-21
-2.61261e-21
-2.42201e-21
-1.85651e-21
-1.13752e-21
-4.44282e-22
1.05989e-22
4.59894e-22
6.17152e-22
6.13423e-22
5.02026e-22
3.38339e-22
1.6896e-22
2.60681e-23
-7.36657e-23
-1.26937e-22
-1.39923e-22
-1.23953e-22
-9.17081e-23
-5.44577e-23
-2.05034e-23
5.30057e-24
2.12319e-23
2.79238e-23
2.743e-23
2.23588e-23
1.52109e-23
7.96999e-24
1.93212e-24
-2.28077e-24
-4.59027e-24
-5.28041e-24
-4.81658e-24
-3.69755e-24
-2.35513e-24
-1.10246e-24
-1.22266e-25
5.17335e-25
8.32494e-25
8.896e-25
7.74986e-25
5.72406e-25
3.49397e-25
1.5161e-25
3.13106e-27
-8.9538e-26
-1.31928e-25
-1.3606e-25
-1.15888e-25
-8.41532e-26
-5.06544e-26
-2.1704e-26
-3.94731e-28
1.26784e-26
1.85452e-26
1.90494e-26
1.62142e-26
1.18281e-26
7.2333e-27
3.27493e-27
3.55607e-28
-1.4564e-27
-2.30497e-27
-2.43687e-27
-2.11885e-27
-1.5848e-27
-1.00979e-27
-5.04668e-28
-1.23599e-28
1.2182e-28
2.47099e-28
2.8115e-28
2.55983e-28
2.00115e-28
1.35298e-28
7.5728e-29
2.88424e-29
-3.08836e-30
-2.11756e-29
-2.83139e-29
-2.79576e-29
-2.33202e-29
-1.69508e-29
-1.05994e-29
-5.27109e-30
-1.3788e-30
1.07103e-30
2.30602e-30
2.65079e-30
2.43292e-30
1.92884e-30
1.34141e-30
7.99062e-31
3.67465e-31
6.62271e-32
-1.14201e-31
-1.9829e-31
-2.15012e-31
-1.91261e-31
-1.4849e-31
-1.01706e-31
-5.99305e-32
-2.74176e-32
-5.09335e-33
8.11522e-33
1.42231e-32
1.54515e-32
1.37876e-32
1.07785e-32
7.48644e-33
4.54068e-33
2.23441e-33
6.3043e-34
-3.44553e-34
-8.27073e-34
-9.67138e-34
-8.98972e-34
-7.27516e-34
-5.25631e-34
-3.37554e-34
-1.85206e-34
-7.50634e-35
-4.25056e-36
3.47197e-35
5.06843e-35
5.1865e-35
4.49057e-35
3.45968e-35
2.40107e-35
1.48359e-35
7.76626e-36
2.86026e-36
-1.71666e-37
-1.7611e-36
-2.35074e-36
-2.32322e-36
-1.97237e-36
-1.50138e-36
-1.03534e-36
-6.39615e-37
-3.3838e-37
-1.30575e-37
-2.01649e-39
6.62888e-38
9.30673e-38
9.41638e-38
8.15979e-38
6.3636e-38
4.53804e-38
2.95419e-38
1.71916e-38
8.39182e-39
2.67144e-39
-6.50593e-40
-2.26657e-39
-2.77574e-39
-2.64383e-39
-2.20128e-39
-1.66188e-39
-1.14904e-39
-7.2226e-40
-3.99835e-40
-1.76385e-40
-3.51901e-41
4.38897e-41
7.98919e-41
8.8602e-41
8.19224e-41
6.81022e-41
5.23709e-41
3.76869e-41
2.54376e-41
1.60154e-41
9.24938e-42
4.70352e-42
1.86463e-42
2.48723e-43
-5.48919e-43
-8.39075e-43
-8.43839e-43
-7.11217e-43
-5.32445e-43
-3.58303e-43
-2.12721e-43
-1.03173e-43
-2.80545e-44
1.84358e-44
4.33251e-44
5.32396e-44
5.36659e-44
4.87488e-44
4.13799e-44
3.34181e-44
2.59413e-44
1.94811e-44
1.42145e-44
1.01093e-44
7.02561e-45
4.78232e-45
3.1966e-45
2.10486e-45
1.37136e-45
8.89549e-46
5.79407e-46
3.83076e-46
2.60154e-46
1.83338e-46
1.34763e-46
1.0312e-46
8.14874e-47
6.578e-47
5.36742e-47
4.38959e-47
3.5766e-47
2.89228e-47
2.31613e-47
1.83456e-47
1.43665e-47
1.11225e-47
8.5148e-48
6.44797e-48
4.83202e-48
3.58496e-48
2.63442e-48
1.9183e-48
1.38471e-48
9.91242e-49
7.03942e-49
4.96107e-49
3.47081e-49
2.41118e-49
1.66374e-49
1.14052e-49
7.76943e-50
5.26053e-50
3.54089e-50
2.36982e-50
1.5773e-50
1.04419e-50
6.87655e-51
4.5056e-51
2.93752e-51
1.90593e-51
1.23079e-51
7.91148e-52
5.06258e-52
3.22529e-52
2.04592e-52
1.29231e-52
8.12913e-53
5.09272e-53
3.17774e-53
1.97505e-53
1.22282e-53
7.54212e-54
4.63449e-54
2.83735e-54
1.73081e-54
1.05205e-54
6.3723e-55
3.84635e-55
2.31375e-55
1.38713e-55
8.28839e-56
4.93624e-56
2.93029e-56
1.73393e-56
1.02277e-56
6.01394e-57
3.5253e-57
2.06016e-57
1.2003e-57
6.97233e-58
4.03809e-58
2.33183e-58
1.34263e-58
7.70837e-59
4.41297e-59
2.51925e-59
1.43416e-59
8.14171e-60
4.60936e-60
2.60244e-60
1.46537e-60
8.22906e-61
4.60891e-61
2.57455e-61
1.43439e-61
7.9709e-62
4.41802e-62
2.44253e-62
1.34694e-62
7.40907e-63
4.06531e-63
2.22508e-63
1.21486e-63
6.61677e-64
3.59508e-64
1.9486e-64
1.05365e-64
5.68371e-65
3.05873e-65
1.64221e-65
8.7963e-66
4.7007e-66
2.50624e-66
1.33317e-66
7.07549e-67
3.74665e-67
1.97948e-67
1.04348e-67
5.48843e-68
2.88038e-68
1.50832e-68
7.88107e-69
4.10893e-69
2.13762e-69
1.10967e-69
5.74814e-70
2.9712e-70
1.53254e-70
7.88815e-71
4.05158e-71
2.07665e-71
1.06218e-71
5.42167e-72
2.76167e-72
1.40384e-72
7.12157e-73
3.60538e-73
1.82157e-73
9.18469e-74
4.62181e-74
2.32109e-74
1.16334e-74
5.81919e-75
2.9051e-75
1.44746e-75
7.19786e-76
3.57235e-76
1.76955e-76
8.74848e-77
4.31685e-77
2.12603e-77
1.04507e-77
5.12735e-78
2.51084e-78
1.22723e-78
5.98715e-79
2.91541e-79
1.417e-79
6.8744e-80
3.32886e-80
1.609e-80
7.76283e-81
3.73843e-81
1.79708e-81
8.62296e-82
4.13009e-82
1.9746e-82
9.42367e-83
4.48934e-83
2.13487e-83
1.01341e-83
4.80212e-84
2.2715e-84
1.07258e-84
5.0557e-85
2.3789e-85
1.11741e-85
5.2396e-86
2.45262e-86
1.14608e-86
5.34625e-87
2.48967e-87
1.15742e-87
5.37157e-88
2.48871e-88
1.1511e-88
5.31516e-89
2.45014e-89
1.12755e-89
5.18031e-90
2.37603e-90
1.08799e-90
4.97371e-91
2.26996e-91
1.03428e-91
4.70488e-92
2.13671e-92
9.688e-93
4.38546e-93
1.98194e-93
8.94262e-94
4.02844e-94
1.8118e-94
8.13553e-95
3.64726e-95
1.6325e-95
7.29541e-96
3.25504e-96
1.45003e-96
6.44924e-97
2.8639e-97
1.26977e-97
5.62099e-98
2.4844e-98
1.09636e-98
4.8307e-99
2.12517e-99
9.33482e-100
4.09401e-100
1.79277e-100
7.83848e-101
3.42197e-101
1.49162e-101
6.49197e-102
2.82122e-102
1.22416e-102
5.30378e-103
2.29444e-103
9.91094e-104
4.27466e-104
1.84094e-104
7.91639e-105
3.39914e-105
1.45735e-105
6.23904e-106
2.66703e-106
1.13841e-106
4.8521e-107
2.06501e-107
8.77566e-108
3.72393e-108
1.57794e-108
6.67649e-109
2.82082e-109
1.19007e-109
5.01353e-110
2.10906e-110
8.85947e-111
3.71625e-111
1.55661e-111
6.51079e-112
2.71937e-112
1.13419e-112
4.72375e-113
1.96459e-113
8.15914e-114
3.3838e-114
1.40137e-114
5.79551e-115
2.39344e-115
9.87064e-116
4.06502e-116
1.67176e-116
6.8657e-117
2.81573e-117
1.15318e-117
4.71634e-118
1.92625e-118
7.85642e-119
3.19993e-119
1.30155e-119
5.28675e-120
2.14449e-120
8.68696e-121
3.51416e-121
1.41967e-121
5.7275e-122
2.30758e-122
9.28461e-123
3.73066e-123
1.49701e-123
5.99906e-124
2.40083e-124
9.5953e-125
3.82982e-125
1.52658e-125
6.07696e-126
2.41589e-126
9.59169e-127
3.80312e-127
1.50596e-127
5.95545e-128
2.35205e-128
9.27708e-129
3.65433e-129
1.4376e-129
5.64811e-130
2.21617e-130
8.68443e-131
3.39873e-131
1.32841e-131
5.18543e-132
2.02153e-132
7.87076e-133
3.06053e-133
1.18856e-133
4.60987e-134
1.78568e-134
6.9082e-135
2.66916e-135
1.02999e-135
3.96955e-136
1.52792e-136
5.87368e-137
2.25514e-137
8.64751e-138
3.31179e-138
1.26675e-138
4.83921e-139
1.84636e-139
7.03584e-140
2.67778e-140
1.01788e-140
3.86434e-141
1.46527e-141
5.54912e-142
2.09891e-142
7.92918e-143
2.99177e-143
1.12745e-143
4.24356e-144
1.59527e-144
5.9897e-145
2.2462e-145
8.41319e-146
3.14736e-146
1.17599e-146
4.3887e-147
1.63584e-147
6.09009e-148
2.26455e-148
8.41038e-149
3.11981e-149
1.1559e-149
4.27751e-150
1.58104e-150
5.8368e-151
2.15223e-151
7.92659e-152
2.91587e-152
1.07135e-152
3.93173e-153
1.44119e-153
5.27649e-154
1.92955e-154
7.04785e-155
2.57126e-155
9.3697e-156
3.41033e-156
1.23982e-156
4.50208e-157
1.6329e-157
5.91565e-158
2.14062e-158
7.73697e-159
2.79318e-159
1.00722e-159
3.62784e-160
1.30518e-160
4.6902e-161
1.6835e-161
6.03579e-162
2.16151e-162
7.73185e-163
2.76256e-163
9.85927e-164
3.51465e-164
1.25148e-164
4.45115e-165
1.58135e-165
5.61164e-166
1.98912e-166
7.0427e-167
2.49074e-167
8.79887e-168
3.10482e-168
1.09436e-168
3.85294e-169
1.355e-169
4.75992e-170
1.67023e-170
5.85417e-171
2.04961e-171
7.16793e-172
2.50399e-172
8.73757e-173
3.04555e-173
1.06038e-173
3.68788e-174
1.28119e-174
4.44599e-175
1.54116e-175
5.3364e-176
1.84575e-176
6.37705e-177
2.20086e-177
7.58735e-178
2.61284e-178
8.98801e-179
3.08845e-179
1.06009e-179
3.63478e-180
1.24491e-180
4.25923e-181
1.45564e-181
4.96942e-182
1.69469e-182
5.77306e-183
1.96451e-183
6.67786e-184
2.26753e-184
7.69138e-185
2.6061e-185
8.8209e-186
2.98244e-186
1.00732e-186
3.3986e-187
1.14544e-187
3.8564e-188
1.29697e-188
4.35734e-189
1.46235e-189
4.90257e-190
1.64186e-190
5.49279e-191
1.83566e-191
6.12823e-192
2.04372e-192
6.80853e-193
2.26584e-193
7.53274e-194
2.50163e-194
8.29925e-195
2.75044e-195
9.10574e-196
3.01145e-196
9.94917e-197
3.28358e-197
1.08257e-197
3.56549e-198
1.17309e-198
3.85566e-199
1.26595e-199
4.1523e-200
1.36055e-200
4.45342e-201
1.45622e-201
4.75684e-202
1.55226e-202
5.06019e-203
1.64788e-203
5.36097e-204
1.74228e-204
5.65657e-205
1.83462e-205
5.94429e-206
1.92404e-206
6.22139e-207
2.00966e-207
6.48515e-208
2.09064e-208
6.73291e-209
2.16615e-209
6.96208e-210
2.23539e-210
7.17023e-211
2.29762e-211
7.3551e-212
2.35216e-212
7.51469e-213
2.39841e-213
7.64721e-214
2.43586e-214
7.75121e-215
2.46409e-215
7.82554e-216
2.4828e-216
7.86939e-217
2.49179e-217
7.88232e-218
2.49097e-218
7.86424e-219
2.48038e-219
7.81545e-220
2.46016e-220
7.73658e-221
2.43058e-221
7.62862e-222
2.39199e-222
7.49287e-223
2.34485e-223
7.33095e-224
2.28973e-224
7.14472e-225
2.22724e-225
6.9363e-226
2.15809e-226
6.70796e-227
2.08302e-227
6.46217e-228
2.00283e-228
6.20146e-229
1.91834e-229
5.92846e-230
1.83038e-230
5.6458e-231
1.73978e-231
5.3561e-232
1.64736e-232
5.06191e-233
1.55391e-233
4.7657e-234
1.46021e-234
4.46981e-235
1.36695e-235
4.17643e-236
1.27482e-236
3.88758e-237
1.18441e-237
3.60507e-238
1.09627e-238
3.33052e-239
1.01088e-239
3.06534e-240
9.28648e-241
2.81071e-241
8.49915e-242
2.56761e-242
7.74956e-243
2.33679e-243
7.03976e-244
2.11881e-244
6.37122e-245
1.91403e-245
5.74478e-246
1.72264e-246
5.16077e-247
1.54466e-247
4.61901e-248
1.37996e-248
4.11889e-249
1.22828e-249
3.65942e-250
1.08925e-250
3.23927e-251
9.62424e-252
2.85685e-252
8.47251e-253
2.51038e-253
7.43139e-254
2.19788e-254
6.49445e-255
1.91728e-255
5.655e-256
1.66642e-256
4.90619e-257
1.44314e-257
4.24111e-258
1.24525e-258
3.65295e-259
1.07062e-259
3.135e-260
9.17165e-261
2.68081e-261
7.82877e-262
2.28418e-262
6.65853e-263
1.93926e-263
5.64293e-264
1.64053e-264
4.76515e-265
1.38286e-265
4.00955e-266
1.16151e-266
3.36175e-267
9.7212e-268
2.80859e-268
8.10722e-269
2.33813e-269
6.73724e-270
1.93959e-270
5.57897e-271
1.6033e-271
4.60352e-272
1.32064e-272
3.78524e-273
1.08398e-273
3.10147e-274
8.86608e-275
2.5323e-275
7.22631e-276
2.06034e-276
5.8692e-277
1.67048e-277
4.75031e-278
1.34966e-278
3.83132e-279