# vtk DataFile Version 2.0
FlowField
ASCII
DATASET STRUCTURED_GRID
DIMENSIONS 1602 1 52
POINTS 83304 float
0 0 0
0.1 0 0
0.2 0 0
0.3 0 0
0.4 0 0
0.5 0 0
0.6 0 0
0.7 0 0
0.8 0 0
0.9 0 0
1 0 0
1.1 0 0
1.2 0 0
1.3 0 0
1.4 0 0
1.5 0 0
1.6 0 0
1.7 0 0
1.8 0 0
1.9 0 0
2 0 0
2.1 0 0
2.2 0 0
2.3 0 0
2.4 0 0
2.5 0 0
2.6 0 0
2.7 0 0
2.8 0 0
2.9 0 0
3 0 0
3.1 0 0
3.2 0 0
3.3 0 0
3.4 0 0
3.5 0 0
3.6 0 0
3.7 0 0
3.8 0 0
3.9 0 0
4 0 0
4.1 0 0
4.2 0 0
4.3 0 0
4.4 0 0
4.5 0 0
4.6 0 0
4.7 0 0
4.8 0 0
4.9 0 0
5 0 0
5.1 0 0
5.2 0 0
5.3 0 0
5.4 0 0
5.5 0 0
5.6 0 0
5.7 0 0
5.8 0 0
5.9 0 0
6 0 0
6.1 0 0
6.2 0 0
6.3 0 0
6.4 0 0
6.5 0 0
6.6 0 0
6.7 0 0
6.8 0 0
6.9 0 0
7 0 0
7.1 0 0
7.2 0 0
7.3 0 0
7.4 0 0
7.5 0 0
7.6 0 0
7.7 0 0
7.8 0 0
7.9 0 0
8 0 0
8.1 0 0
8.2 0 0
8.3 0 0
8.4 0 0
8.5 0 0
8.6 0 0
8.7 0 0
8.8 0 0
8.9 0 0
9 0 0
9.1 0 0
9.2 0 0
9.3 0 0
9.4 0 0
9.5 0 0
9.6 0 0
9.7 0 0
9.8 0 0
9.9 0 0
10 0 0
10.1 0 0
10.2 0 0
10.3 0 0
10.4 0 0
10.5 0 0
10.6 0 0
10.7 0 0
10.8 0 0
10.9 0 0
11 0 0
11.1 0 0
11.2 0 0
11.3 0 0
11.4 0 0
11.5 0 0
11.6 0 0
11.7 0 0
11.8 0 0
11.9 0 0
12 0 0
12.1 0 0
12.2 0 0
12.3 0 0
12.4 0 0
12.5 0 0
12.6 0 0
12.7 0 0
12.8 0 0
12.9 0 0
13 0 0
13.1 0 0
13.2 0 0
13.3 0 0
13.4 0 0
13.5 0 0
13.6 0 0
13.7 0 0
13.8 0 0
13.9 0 0
14 0 0
14.1 0 0
14.2 0 0
14.3 0 0
14.4 0 0
14.5 0 0
14.6 0 0
14.7 0 0
14.8 0 0
14.9 0 0
15 0 0
15.1 0 0
15.2 0 0
15.3 0 0
15.4 0 0
15.5 0 0
15.6 0 0
15.7 0 0
15.8 0 0
15.9 0 0
16 0 0
16.1 0 0
16.2 0 0
16.3 0 0
16.4 0 0
16.5 0 0
16.6 0 0
16.7 0 0
16.8 0 0
16.9 0 0
17 0 0
17.1 0 0
17.2 0 0
17.3 0 0
17.4 0 0
17.5 0 0
17.6 0 0
17.7 0 0
17.8 0 0
17.9 0 0
18 0 0
18.1 0 0
18.2 0 0
18.3 0 0
18.4 0 0
18.5 0 0
18.6 0 0
18.7 0 0
18.8 0 0
18.9 0 0
19 0 0
19.1 0 0
19.2 0 0
19.3 0 0
19.4 0 0
19.5 0 0
19.6 0 0
19.7 0 0
19.8 0 0
19.9 0 0
20 0 0
20.1 0 0
20.2 0 0
20.3 0 0
20.4 0 0
20.5 0 0
20.6 0 0
20.7 0 0
20.8 0 0
20.9 0 0
21 0 0
21.1 0 0
21.2 0 0
21.3 0 0
21.4 0 0
21.5 0 0
21.6 0 0
21.7 0 0
21.8 0 0
21.9 0 0
22 0 0
22.1 0 0
22.2 0 0
22.3 0 0
22.4 0 0
22.5 0 0
22.6 0 0
22.7 0 0
22.8 0 0
22.9 0 0
23 0 0
23.1 0 0
23.2 0 0
23.3 0 0
23.4 0 0
23.5 0 0
23.6 0 0
23.7 0 0
23.8 0 0
23.9 0 0
24 0 0
24.1 0 0
24.2 0 0
24.3 0 0
24.4 0 0
24.5 0 0
24.6 0 0
24.7 0 0
24.8 0 0
24.9 0 0
25 0 0
25.1 0 0
25.2 0 0
25.3 0 0
25.4 0 0
25.5 0 0
25.6 0 0
25.7 0 0
25.8 0 0
25.9 0 0
26 0 0
26.1 0 0
26.2 0 0
26.3 0 0
26.4 0 0
26.5 0 0
26.6 0 0
26.7 0 0
26.8 0 0
26.9 0 0
27 0 0
27.1 0 0
27.2 0 0
27.3 0 0
27.4 0 0
27.5 0 0
27.6 0 0
27.7 0 0
27.8 0 0
27.9 0 0
28 0 0
28.1 0 0
28.2 0 0
28.3 0 0
28.4 0 0
28.5 0 0
28.6 0 0
28.7 0 0
28.8 0 0
28.9 0 0
29 0 0
29.1 0 0
29.2 0 0
29.3 0 0
29.4 0 0
29.5 0 0
29.6 0 0
29.7 0 0
29.8 0 0
29.9 0 0
30 0 0
30.1 0 0
30.2 0 0
30.3 0 0
30.4 0 0
30.5 0 0
30.6 0 0
30.7 0 0
30.8 0 0
30.9 0 0
31 0 0
31.1 0 0
31.2 0 0
31.3 0 0
31.4 0 0
31.5 0 0
31.6 0 0
31.7 0 0
31.8 0 0
31.9 0 0
32 0 0
32.1 0 0
32.2 0 0
32.3 0 0
32.4 0 0
32.5 0 0
32.6 0 0
32.7 0 0
32.8 0 0
32.9 0 0
33 0 0
33.1 0 0
33.2 0 0
33.3 0 0
33.4 0 0
33.5 0 0
33.6 0 0
33.7 0 0
33.8 0 0
33.9 0 0
34 0 0
34.1 0 0
34.2 0 0
34.3 0 0
34.4 0 0
34.5 0 0
34.6 0 0
34.7 0 0
34.8 0 0
34.9 0 0
35 0 0
35.1 0 0
35.2 0 0
35.3 0 0
35.4 0 0
35.5 0 0
35.6 0 0
35.7 0 0
35.8 0 0
35.9 0 0
36 0 0
36.1 0 0
36.2 0 0
36.3 0 0
36.4 0 0
36.5 0 0
36.6 0 0
36.7 0 0
36.8 0 0
36.9 0 0
37 0 0
37.1 0 0
37.2 0 0
37.3 0 0
37.4 0 0
37.5 0 0
37.6 0 0
37.7 0 0
37.8 0 0
37.9 0 0
38 0 0
38.1 0 0
38.2 0 0
38.3 0 0
38.4 0 0
38.5 0 0
38.6 0 0
38.7 0 0
38.8 0 0
38.9 0 0
39 0 0
39.1 0 0
39.2 0 0
39.3 0 0
39.4 0 0
39.5 0 0
39.6 0 0
39.7 0 0
39.8 0 0
39.9 0 0
40 0 0
40.1 0 0
40.2 0 0
40.3 0 0
40.4 0 0
40.5 0 0
40.6 0 0
40.7 0 0
40.8 0 0
40.9 0 0
41 0 0
41.1 0 0
41.2 0 0
41.3 0 0
41.4 0 0
41.5 0 0
41.6 0 0
41.7 0 0
41.8 0 0
41.9 0 0
42 0 0
42.1 0 0
42.2 0 0
42.3 0 0
42.4 0 0
42.5 0 0
42.6 0 0
42.7 0 0
42.8 0 0
42.9 0 0
43 0 0
43.1 0 0
43.2 0 0
43.3 0 0
43.4 0 0
43.5 0 0
43.6 0 0
43.7 0 0
43.8 0 0
43.9 0 0
44 0 0
44.1 0 0
44.2 0 0
44.3 0 0
44.4 0 0
44.5 0 0
44.6 0 0
44.7 0 0
44.8 0 0
44.9 0 0
45 0 0
45.1 0 0
45.2 0 0
45.3 0 0
45.4 0 0
45.5 0 0
45.6 0 0
45.7 0 0
45.8 0 0
45.9 0 0
46 0 0
46.1 0 0
46.2 0 0
46.3 0 0
46.4 0 0
46.5 0 0
46.6 0 0
46.7 0 0
46.8 0 0
46.9 0 0
47 0 0
47.1 0 0
47.2 0 0
47.3 0 0
47.4 0 0
47.5 0 0
47.6 0 0
47.7 0 0
47.8 0 0
47.9 0 0
48 0 0
48.1 0 0
48.2 0 0
48.3 0 0
48.4 0 0
48.5 0 0
48.6 0 0
48.7 0 0
48.8 0 0
48.9 0 0
49 0 0
49.1 0 0
49.2 0 0
49.3 0 0
49.4 0 0
49.5 0 0
49.6 0 0
49.7 0 0
49.8 0 0
49.9 0 0
50 0 0
50.1 0 0
50.2 0 0
50.3 0 0
50.4 0 0
50.5 0 0
50.6 0 0
50.7 0 0
50.8 0 0
50.9 0 0
51 0 0
51.1 0 0
51.2 0 0
51.3 0 0
51.4 0 0
51.5 0 0
51.6 0 0
51.7 0 0
51.8 0 0
51.9 0 0
52 0 0
52.1 0 0
52.2 0 0
52.3 0 0
52.4 0 0
52.5 0 0
52.6 0 0
52.7 0 0
52.8 0 0
52.9 0 0
53 0 0
53.1 0 0
53.2 0 0
53.3 0 0
53.4 0 0
53.5 0 0
53.6 0 0
53.7 0 0
53.8 0 0
53.9 0 0
54 0 0
54.1 0 0
54.2 0 0
54.3 0 0
54.4 0 0
54.5 0 0
54.6 0 0
54.7 0 0
54.8 0 0
54.9 0 0
55 0 0
55.1 0 0
55.2 0 0
55.3 0 0
55.4 0 0
55.5 0 0
55.6 0 0
55.7 0 0
55.8 0 0
55.9 0 0
56 0 0
56.1 0 0
56.2 0 0
56.3 0 0
56.4 0 0
56.5 0 0
56.6 0 0
56.7 0 0
56.8 0 0
56.9 0 0
57 0 0
57.1 0 0
57.2 0 0
57.3 0 0
57.4 0 0
57.5 0 0
57.6 0 0
57.7 0 0
57.8 0 0
57.9 0 0
58 0 0
58.1 0 0
58.2 0 0
58.3 0 0
58.4 0 0
58.5 0 0
58.6 0 0
58.7 0 0
58.8 0 0
58.9 0 0
59 0 0
59.1 0 0
59.2 0 0
59.3 0 0
59.4 0 0
59.5 0 0
59.6 0 0
59.7 0 0
59.8 0 0
59.9 0 0
60 0 0
60.1 0 0
60.2 0 0
60.3 0 0
60.4 0 0
60.5 0 0
60.6 0 0
60.7 0 0
60.8 0 0
60.9 0 0
61 0 0
61.1 0 0
61.2 0 0
61.3 0 0
61.4 0 0
61.5 0 0
61.6 0 0
61.7 0 0
61.8 0 0
61.9 0 0
62 0 0
62.1 0 0
62.2 0 0
62.3 0 0
62.4 0 0
62.5 0 0
62.6 0 0
62.7 0 0
62.8 0 0
62.9 0 0
63 0 0
63.1 0 0
63.2 0 0
63.3 0 0
63.4 0 0
63.5 0 0
63.6 0 0
63.7 0 0
63.8 0 0
63.9 0 0
64 0 0
64.1 0 0
64.2 0 0
64.3 0 0
64.4 0 0
64.5 0 0
64.6 0 0
64.7 0 0
64.8 0 0
64.9 0 0
65 0 0
65.1 0 0
65.2 0 0
65.3 0 0
65.4 0 0
65.5 0 0
65.6 0 0
65.7 0 0
65.8 0 0
65.9 0 0
66 0 0
66.1 0 0
66.2 0 0
66.3 0 0
66.4 0 0
66.5 0 0
66.6 0 0
66.7 0 0
66.8 0 0
66.9 0 0
67 0 0
67.1 0 0
67.2 0 0
67.3 0 0
67.4 0 0
67.5 0 0
67.6 0 0
67.7 0 0
67.8 0 0
67.9 0 0
68 0 0
68.1 0 0
68.2 0 0
68.3 0 0
68.4 0 0
68.5 0 0
68.6 0 0
68.7 0 0
68.8 0 0
68.9 0 0
69 0 0
69.1 0 0
69.2 0 0
69.3 0 0
69.4 0 0
69.5 0 0
69.6 0 0
69.7 0 0
69.8 0 0
69.9 0 0
70 0 0
70.1 0 0
70.2 0 0
70.3 0 0
70.4 0 0
70.5 0 0
70.6 0 0
70.7 0 0
70.8 0 0
70.9 0 0
71 0 0
71.1 0 0
71.2 0 0
71.3 0 0
71.4 0 0
71.5 0 0
71.6 0 0
71.7 0 0
71.8 0 0
71.9 0 0
72 0 0
72.1 0 0
72.2 0 0
72.3 0 0
72.4 0 0
72.5 0 0
72.6 0 0
72.7 0 0
72.8 0 0
72.9 0 0
73 0 0
73.1 0 0
73.2 0 0
73.3 0 0
73.4 0 0
73.5 0 0
73.6 0 0
73.7 0 0
73.8 0 0
73.9 0 0
74 0 0
74.1 0 0
74.2 0 0
74.3 0 0
74.4 0 0
74.5 0 0
74.6 0 0
74.7 0 0
74.8 0 0
74.9 0 0
75 0 0
75.1 0 0
75.2 0 0
75.3 0 0
75.4 0 0
75.5 0 0
75.6 0 0
75.7 0 0
75.8 0 0
75.9 0 0
76 0 0
76.1 0 0
76.2 0 0
76.3 0 0
76.4 0 0
76.5 0 0
76.6 0 0
76.7 0 0
76.8 0 0
76.9 0 0
77 0 0
77.1 0 0
77.2 0 0
77.3 0 0
77.4 0 0
77.5 0 0
77.6 0 0
77.7 0 0
77.8 0 0
77.9 0 0
78 0 0
78.1 0 0
78.2 0 0
78.3 0 0
78.4 0 0
78.5 0 0
78.6 0 0
78.7 0 0
78.8 0 0
78.9 0 0
79 0 0
79.1 0 0
79.2 0 0
79.3 0 0
79.4 0 0
79.5 0 0
79.6 0 0
79.7 0 0
79.8 0 0
79.9 0 0
80 0 0
80.1 0 0
80.2 0 0
80.3 0 0
80.4 0 0
80.5 0 0
80.6 0 0
80.7 0 0
80.8 0 0
80.9 0 0
81 0 0
81.1 0 0
81.2 0 0
81.3 0 0
81.4 0 0
81.5 0 0
81.6 0 0
81.7 0 0
81.8 0 0
81.9 0 0
82 0 0
82.1 0 0
82.2 0 0
82.3 0 0
82.4 0 0
82.5 0 0
82.6 0 0
82.7 0 0
82.8 0 0
82.9 0 0
83 0 0
83.1 0 0
83.2 0 0
83.3 0 0
83.4 0 0
83.5 0 0
83.6 0 0
83.7 0 0
83.8 0 0
83.9 0 0
84 0 0
84.1 0 0
84.2 0 0
84.3 0 0
84.4 0 0
84.5 0 0
84.6 0 0
84.7 0 0
84.8 0 0
84.9 0 0
85 0 0
85.1 0 0
85.2 0 0
85.3 0 0
85.4 0 0
85.5 0 0
85.6 0 0
85.7 0 0
85.8 0 0
85.9 0 0
86 0 0
86.1 0 0
86.2 0 0
86.3 0 0
86.4 0 0
86.5 0 0
86.6 0 0
86.7 0 0
86.8 0 0
86.9 0 0
87 0 0
87.1 0 0
87.2 0 0
87.3 0 0
87.4 0 0
87.5 0 0
87.6 0 0
87.7 0 0
87.8 0 0
87.9 0 0
88 0 0
88.1 0 0
88.2 0 0
88.3 0 0
88.4 0 0
88.5 0 0
88.6 0 0
88.7 0 0
88.8 0 0
88.9 0 0
89 0 0
89.1 0 0
89.2 0 0
89.3 0 0
89.4 0 0
89.5 0 0
89.6 0 0
89.7 0 0
89.8 0 0
89.9 0 0
90 0 0
90.1 0 0
90.2 0 0
90.3 0 0
90.4 0 0
90.5 0 0
90.6 0 0
90.7 0 0
90.8 0 0
90.9 0 0
91 0 0
91.1 0 0
91.2 0 0
91.3 0 0
91.4 0 0
91.5 0 0
91.6 0 0
91.7 0 0
91.8 0 0
91.9 0 0
92 0 0
92.1 0 0
92.2 0 0
92.3 0 0
92.4 0 0
92.5 0 0
92.6 0 0
92.7 0 0
92.8 0 0
92.9 0 0
93 0 0
93.1 0 0
93.2 0 0
93.3 0 0
93.4 0 0
93.5 0 0
93.6 0 0
93.7 0 0
93.8 0 0
93.9 0 0
94 0 0
94.1 0 0
94.2 0 0
94.3 0 0
94.4 0 0
94.5 0 0
94.6 0 0
94.7 0 0
94.8 0 0
94.9 0 0
95 0 0
95.1 0 0
95.2 0 0
95.3 0 0
95.4 0 0
95.5 0 0
95.6 0 0
95.7 0 0
95.8 0 0
95.9 0 0
96 0 0
96.1 0 0
96.2 0 0
96.3 0 0
96.4 0 0
96.5 0 0
96.6 0 0
96.7 0 0
96.8 0 0
96.9 0 0
97 0 0
97.1 0 0
97.2 0 0
97.3 0 0
97.4 0 0
97.5 0 0
97.6 0 0
97.7 0 0
97.8 0 0
97.9 0 0
98 0 0
98.1 0 0
98.2 0 0
98.3 0 0
98.4 0 0
98.5 0 0
98.6 0 0
98.7 0 0
98.8 0 0
98.9 0 0
99 0 0
99.1 0 0
99.2 0 0
99.3 0 0
99.4 0 0
99.5 0 0
99.6 0 0
99.7 0 0
99.8 0 0
99.9 0 0
100 0 0
100.1 0 0
100.2 0 0
100.3 0 0
100.4 0 0
100.5 0 0
100.6 0 0
100.7 0 0
100.8 0 0
100.9 0 0
101 0 0
101.1 0 0
101.2 0 0
101.3 0 0
101.4 0 0
101.5 0 0
101.6 0 0
101.7 0 0
101.8 0 0
101.9 0 0
102 0 0
102.1 0 0
102.2 0 0
102.3 0 0
102.4 0 0
102.5 0 0
102.6 0 0
102.7 0 0
102.8 0 0
102.9 0 0
103 0 0
103.1 0 0
103.2 0 0
103.3 0 0
103.4 0 0
103.5 0 0
103.6 0 0
103.7 0 0
103.8 0 0
103.9 0 0
104 0 0
104.1 0 0
104.2 0 0
104.3 0 0
104.4 0 0
104.5 0 0
104.6 0 0
104.7 0 0
104.8 0 0
104.9 0 0
105 0 0
105.1 0 0
105.2 0 0
105.3 0 0
105.4 0 0
105.5 0 0
105.6 0 0
105.7 0 0
105.8 0 0
105.9 0 0
106 0 0
106.1 0 0
106.2 0 0
106.3 0 0
106.4 0 0
106.5 0 0
106.6 0 0
106.7 0 0
106.8 0 0
106.9 0 0
107 0 0
107.1 0 0
107.2 0 0
107.3 0 0
107.4 0 0
107.5 0 0
107.6 0 0
107.7 0 0
107.8 0 0
107.9 0 0
108 0 0
108.1 0 0
108.2 0 0
108.3 0 0
108.4 0 0
108.5 0 0
108.6 0 0
108.7 0 0
108.8 0 0
108.9 0 0
109 0 0
109.1 0 0
109.2 0 0
109.3 0 0
109.4 0 0
109.5 0 0
109.6 0 0
109.7 0 0
109.8 0 0
109.9 0 0
110 0 0
110.1 0 0
110.2 0 0
110.3 0 0
110.4 0 0
110.5 0 0
110.6 0 0
110.7 0 0
110.8 0 0
110.9 0 0
111 0 0
111.1 0 0
111.2 0 0
111.3 0 0
111.4 0 0
111.5 0 0
111.6 0 0
111.7 0 0
111.8 0 0
111.9 0 0
112 0 0
[...]
POINT_DATA 83304

SCALARS pressure float 1
LOOKUP_TABLE default
0
0
0
0
0
0
0
0
0
0
0
0
0
0
0
0
0
0
0
0
0
0
0
0
0
0
0
0
0
0
0
0
0
0
0
0
0
0
0
0
0
0
0
0
0
0
0
0
0
0
0
0
0
0
0
0
0
0
0
0
0
0
0
0
0
0
0
0
0
0
0
0
0
0
0
0
0
0
0
0
0
0
0
0
0
0
0
0
0
0
0
0
0
0
0
0
0
0
0
0
0
0
0
0
0
0
0
0
0
0
0
0
0
0
0
0
0
0
0
0
0
0
0
0
0
0
0
0
0
0
0
0
0
0
0
0
0
0
0
0
0
0
0
0
0
0
0
0
0
0
0
0
0
0
0
0
0
0
0
0
0
0
0
0
0
0
0
0
0
0
0
0
0
0
0
0
0
0
0
0
0
0
0
0
0
0
0
0
0
0
0
0
0
0
0
0
0
0
0
0
0
0
0
0
0
0
0
0
0
0
0
0
0
0
0
0
0
0
0
0
0
0
0
0
0
0
0
0
0
0
0
0
0
0
0
0
0
0
0
0
0
0
0
0
0
0
0
0
0
0
0
0
0
0
0
0
0
0
0
0
0
0
0
0
0
0
0
0
0
0
0
0
0
0
0
0
0
0
0
0
0
0
0
0
0
0
0
0
0
0
0
0
0
0
0
0
0
0
0
0
0
0
0
0
0
0
0
0
0
0
0
0
0
0
0
0
0
0
0
0
0
0
0
0
0
0
0
0
0
0
0
0
0
0
0
0
0
0
0
0
0
0
0
0
0
0
0
0
0
0
0
0
0
0
0
0
0
0
0
0
0
0
0
0
0
0
0
0
0
0
0
0
0
0
0
0
0
0
0
0
0
0
0
0
0
0
0
0
0
0
0
0
0
0
0
0
0
0
0
0
0
0
0
0
0
0
0
0
0
0
0
0
0
0
0
0
0
0
0
0
0
0
0
0
0
0
0
0
0
0
0
0
0
0
0
0
0
0
0
0
0
0
0
0
0
0
0
0
0
0
0
0
0
0
0
0
0
0
0
0
0
0
0
0
0
0
0
0
0
0
0
0
0
0
0
0
0
0
0
0
0
0
0
0
0
0
0
0
0
0
0
0
0
0
0
0
0
0
0
0
0
0
0
0
0
0
0
0
0
0
0
0
0
0
0
0
0
0
0
0
0
0
0
0
0
0
0
0
0
0
0
0
0
0
0
0
0
0
0
0
0
0
0
0
0
0
0
0
0
0
0
0
0
0
0
0
0
0
0
0
0
0
0
0
0
0
0
0
0
0
0
0
0
0
0
0
0
0
0
0
0
0
0
0
0
0
0
0
0
0
0
0
0
0
0
0
0
0
0
0
0
0
0
0
0
0
0
0
0
0
0
0
0
0
0
0
0
0
0
0
0
0
0
0
0
0
0
0
0
0
0
0
0
0
0
0
0
0
0
0
0
0
0
0
0
0
0
0
0
0
0
0
0
0
0
0
0
0
0
0
0
0
0
0
0
0
0
0
0
0
0
0
0
0
0
0
0
0
0
0
0
0
0
0
0
0
0
0
0
0
0
0
0
0
0
0
0
0
0
0
0
0
0
0
0
0
0
0
0
0
0
0
0
0
0
0
0
0
0
0
0
0
0
0
0
0
0
0
0
0
0
0
0
0
0
0
0
0
0
0
0
0
0
0
0
0
0
0
0
0
0
0
0
0
0
0
0
0
0
0
0
0
0
0
0
0
0
0
0
0
0
0
0
0
0
0
0
0
0
0
0
0
0
0
0
0
0
0
0
0
0
0
0
0
0
0
0
0
0
0
0
0
0
0
0
0
0
0
0
0
0
0
0
0
0
0
0
0
0
0
0
0
0
0
0
0
0
0
0
0
0
0
0
0
0
0
0
0
0
0
0
0
0
0
0
0
0
0
0
0
0
0
0
0
0
0
0
0
0
0
0
0
0
0
0
0
0
0
0
0
0
0
0
0
0
0
0
0
0
0
0
0
0
0
0
0
0
0
0
0
0
0
0
0
0
0
0
0
0
0
0
0
0
0
0
0
0
0
0
0
0
0
0
0
0
0
0
0
0
0
0
0
0
0
0
0
0
0
0
0
0
0
0
0
0
0
0
0
0
0
0
0
0
0
0
0
0
0
0
0
0
0
0
0
0
0
0
0
0
0
0
0
0
0
0
0
0
0
0
0
0
0
0
0
0
0
0
0
0
0
0
0
0
0
0
0
0
0
0
0
0
0
0
0
0
0
0
0
0
0
0
0
0
0
0
0
0
0
0
0
0
0
0
0
0
0
0
0
0
0
0
0
0
0
0
0
0
0
0
0
0
0
0
0
0
0
0
0
0
0
0
0
0
0
0
0
0
0
0
0
0
0
0
0
0
0
0
0
0
0
0
0
0
0
0
0
0
0
0
0
0
0
0
0
0
0
0
0
0
0
0
0
0
0
0
0
0
0
0
0
0
0
0
0
0
0
0
0
0
0
0
0
0
0
0
0
0
0
0
0
0
0
0
0
0
0
0
0
0
0
0
0
0
0
0
0
0
0
0
0
0
0
0
0
0
0
0
0
0
0
0
0
0
0
0
0
0
0
0
0
0
0
0
0
0
0
0
0
0
0
0
0
0
0
0
0
0
0
0
0
0
0
0
0
0
0
0
0
0
0
0
0
0
0
0
0
0
0
0
0
0
0
0
0
0
0
0
0
0
0
0
0
0
0
0
0
0
0
0
0
0
0
0
0
0
0
0
0
0
0
0
0
0
0
0
0
0
0
0
0
0
0
0
0
0
0
0
0
0
0
0
0
0
0
0
0
0
0
0
0
0
0
0
0
0
0
0
0
0
0
0
0
0
0
0
0
0
0
0
0
0
0
0
0
0
0
0
0
0
0
0
0
0
0
0
0
0
0
0
0
0
0
0
0
0
0
0
0
0
0
0
0
0
0
0
0
0
0
0
0
0
0
0
0
0
0
0
0
0
0
0
0
0
0
0
0
0
0
0
0
0
0
0
0
0
0
0
0
0
0
0
0
0
0
0
0
0
0
0
0
0
0
0
0
0
0
0
0
0
0
0
0
0
0
0
0
0
0
0
0
0
0
0
0
0
0
0
0
0
0
0
0
0
0
0
0
0
0
0
0
0
0
0
0
0
0
0
0
0
0
0
0
0
0
0
0
0
0
0
0
0
0
0
0
0
0
0
0
0
0
0
0
0
0
0
0
0
0
0
0
0
0
0
0
0
0
0
0
0
0
0
0
0
0
0
0
0
0
0
0
0
0
0
0
0
0
0
0
0
0
0
0
0
0
0
0
0
0
0
0
0
0
0
0
0
0
0
0
0
0
0
0
0
0
0
0
0
0
0
0
0
0
0
0
0
0
0
0
0
0
0
0
0
0
0
0
0
0
0
0
0
0
0
0
0
0
0
0
0
0
0
0
0
0
0
0
0
0
0
0
0
0
0
0
0
0
0
0
0
0
0
0
0
0
0
0
0
0
0
0
0
0
0
0
0
0
0
0
0
0
0
0
0
0
0
0
0
0
0
0
0
0
0
0
0
0
0
0
0
0
0
0
0
0
0
0
0
0
0
0
0
0
0
0
0
0
0
0
0
0
0
0
0
0.0776415
0.052903
0.0436505
0.0357426
0.0304801
0.0271089
0.024802
0.0231161
0.0218009
0.0207279
0.0198237
0.0190439
0.0183599
0.0177523
0.0172071
0.0167139
0.016265
0.015854
0.0154759
0.0151267
0.014803
0.014502
0.0142215
0.0139599
0.0137161
0.0134897
0.0132809
0.0130908
0.012921
0.0127738
0.0126515
0.0125559
0.0124872
0.0124425
0.0124139
0.0123869
0.0123382
0.0122345
0.0120325
0.0116797
0.0111195
0.0102977
0.00917374
0.00773482
0.00601202
0.00409469
0.0021396
0.000367114
-0.000955815
-0.00154597
-0.00114631
0.000436995
0.00330942
0.00748236
0.0128798
0.0193576
0.0267323
0.0347957
0.0433371
0.0521509
0.0610394
0.0698322
0.0783585
0.0864502
0.0939371
0.100661
0.106492
0.111307
0.114966
0.117321
0.118262
0.117742
0.115788
0.112486
0.107973
0.102429
0.0960738
0.0891477
0.0818994
0.074562
0.0673357
0.0603785
0.0538046
0.0476876
0.0420679
0.0369594
0.0323564
0.0282396
0.0245806
0.0213458
0.018499
0.0160032
0.0138226
0.0119227
0.0102715
0.00883952
0.0075999
0.00652857
0.00560396
0.00480698
0.00412075
0.00353044
0.00302309
0.00258737
0.00221342
0.00189269
0.00161776
0.00138221
0.0011805
0.00100785
0.000860139
0.00073381
0.000625816
0.000533533
0.000454706
0.000387397
0.000329939
0.000280906
0.000239078
0.000203411
0.00017301
0.000147102
0.000125017
0.000106179
9.01034e-05
7.63907e-05
6.47117e-05
5.47854e-05
4.63574e-05
3.91912e-05
3.30777e-05
2.78572e-05
2.34365e-05
1.97839e-05
1.6893e-05
1.47245e-05
1.31541e-05
1.19536e-05
1.08253e-05
9.48425e-06
7.75801e-06
5.66144e-06
3.41087e-06
1.36377e-06
-9.89122e-08
-7.06511e-07
-3.99481e-07
6.39653e-07
2.0361e-06
3.33476e-06
4.13468e-06
4.20064e-06
3.51783e-06
2.27699e-06
8.01275e-07
-5.56529e-07
-1.51241e-06
-1.917e-06
-1.77485e-06
-1.21925e-06
-4.57058e-07
2.95697e-07
8.68284e-07
1.16729e-06
1.18246e-06
9.70562e-07
6.26576e-07
2.52406e-07
-6.8315e-08
-2.84647e-07
-3.81277e-07
-3.72343e-07
-2.9016e-07
-1.72989e-07
-5.50238e-08
3.97387e-08
9.94849e-08
1.23274e-07
1.17765e-07
9.33582e-08
6.08008e-08
2.88608e-08
3.21127e-09
-1.3647e-08
-2.17741e-08
-2.28671e-08
-1.9334e-08
-1.35617e-08
-7.46039e-09
-2.27488e-09
1.40005e-09
3.48125e-09
4.21252e-09
3.98907e-09
3.22261e-09
2.25782e-09
1.33563e-09
5.91415e-10
7.39143e-11
-2.27474e-10
-3.55851e-10
-3.65365e-10
-3.0693e-10
-2.20707e-10
-1.33808e-10
-6.13579e-11
-9.22029e-12
2.2846e-11
3.83794e-11
4.21038e-11
3.85761e-11
3.14872e-11
2.34369e-11
1.6003e-11
9.95273e-12
5.49372e-12
2.50061e-12
6.9047e-13
-2.59046e-13
-6.41382e-13
-6.90122e-13
-5.72487e-13
-3.96473e-13
-2.23784e-13
-8.36218e-14
1.5339e-14
7.57843e-14
1.05472e-13
1.1336e-13
1.07538e-13
9.43672e-14
7.834e-14
6.23103e-14
4.7865e-14
3.57033e-14
2.59606e-14
1.84543e-14
1.28537e-14
8.7877e-15
5.90567e-15
3.90595e-15
2.54498e-15
1.63497e-15
1.0364e-15
6.48657e-16
4.01066e-16
2.45104e-16
1.48118e-16
8.85462e-17
5.23829e-17
3.0677e-17
1.77897e-17
1.02183e-17
5.8151e-18
3.27946e-18
1.83321e-18
1.01596e-18
5.5831e-19
3.04291e-19
1.64509e-19
8.8236e-20
4.69596e-20
2.48019e-20
1.30013e-20
6.76525e-21
3.49487e-21
1.79257e-21
9.12995e-22
4.61799e-22
2.31992e-22
1.15764e-22
5.73837e-23
2.82594e-23
1.3827e-23
6.72242e-24
3.24778e-24
1.55935e-24
7.44097e-25
3.52919e-25
1.66384e-25
7.79767e-26
3.633e-26
1.68283e-26
7.75022e-27
3.54906e-27
1.61608e-27
7.31793e-28
3.29542e-28
1.47589e-28
6.57413e-29
2.91265e-29
1.28358e-29
5.62683e-30
2.45375e-30
1.06449e-30
4.59428e-31
1.97277e-31
8.42823e-32
3.58273e-32
1.51541e-32
6.37817e-33
2.67137e-33
1.11341e-33
4.61828e-34
1.90643e-34
7.83241e-35
3.2027e-35
1.30347e-35
5.28031e-36
2.12917e-36
8.54602e-37
3.41457e-37
1.35812e-37
5.37756e-38
2.11977e-38
8.31884e-39
3.25026e-39
1.26435e-39
4.8969e-40
1.8884e-40
7.25096e-41
2.77228e-41
1.05543e-41
4.00118e-42
1.51049e-42
5.67847e-43
2.12588e-43
7.92598e-44
2.94294e-44
1.08826e-44
4.00794e-45
1.47012e-45
5.3708e-46
1.95429e-46
7.08289e-47
2.55691e-47
9.1941e-48
3.29309e-48
1.17491e-48
4.17567e-49
1.47833e-49
5.21375e-50
1.83177e-50
6.41127e-51
2.2355e-51
7.76553e-52
2.68746e-52
9.26608e-53
3.18302e-53
1.08938e-53
3.71471e-54
1.26207e-54
4.27227e-55
1.44099e-55
4.84284e-56
1.62173e-56
5.41132e-57
1.79922e-57
5.96109e-58
1.96805e-58
6.4747e-59
2.12268e-59
6.93487e-60
2.2578e-60
7.32544e-61
2.36858e-61
7.6323e-62
2.45099e-62
7.84427e-63
2.50204e-63
7.95379e-64
2.51997e-64
7.95731e-65
2.50433e-65
7.85554e-66
2.45599e-66
7.65328e-67
2.37709e-67
7.35912e-68
2.27088e-68
6.9848e-69
2.14147e-69
6.54446e-70
1.99363e-70
6.0538e-71
1.83244e-71
5.52913e-72
1.66307e-72
4.98655e-73
1.49048e-73
4.44117e-74
1.31922e-74
3.9065e-75
1.15323e-75
3.39397e-76
9.95784e-77
2.91269e-77
8.49376e-78
2.46937e-78
7.15742e-79
2.06831e-79
5.95895e-80
1.71168e-80
4.90203e-81
1.3997e-81
3.98481e-82
1.13108e-82
3.2011e-83
9.03292e-84
2.54147e-84
7.12971e-85
1.99432e-85
5.56233e-86
1.5469e-86
4.28958e-87
1.18609e-87
3.27023e-88
8.99075e-89
2.46477e-89
6.73787e-90
1.83671e-90
4.99264e-91
1.35331e-91
3.65803e-92
9.86009e-93
2.65035e-93
7.10422e-94
1.899e-94
5.06214e-95
1.34569e-95
3.56748e-96
9.43163e-97
2.48671e-97
6.53852e-98
1.71456e-98
4.48384e-99
1.16942e-99
3.04175e-100
7.89057e-101
2.0414e-101
5.26729e-102
1.35547e-102
3.47885e-103
8.90493e-104
2.27341e-104
5.78867e-105
1.47007e-105
3.72355e-106
9.40679e-107
2.37024e-107
5.9568e-108
1.49316e-108
3.73315e-109
9.30945e-110
2.31555e-110
5.74471e-111
1.42157e-111
3.50882e-112
8.63866e-113
2.12142e-113
5.19646e-114
1.26966e-114
3.09438e-115
7.52258e-116
1.82419e-116
4.41249e-117
1.06467e-117
2.56249e-118
6.1522e-119
1.47341e-119
3.51997e-120
8.38852e-121
1.99417e-121
4.72904e-122
1.11871e-122
2.64e-123
6.21485e-124
1.45949e-124
3.41915e-125
7.99067e-126
1.86294e-126
4.33281e-127
1.0053e-127
2.32692e-128
5.37313e-129
1.23776e-129
2.84454e-130
6.52161e-131
1.49166e-131
3.40373e-132
7.74849e-133
1.75977e-133
3.98727e-134
9.01316e-135
2.03265e-135
4.57336e-136
1.02659e-136
2.29906e-137
5.13684e-138
1.14508e-138
2.5467e-139
5.65089e-140
1.251e-140
2.76316e-141
6.08917e-142
1.33881e-142
2.93692e-143
6.42803e-144
1.40371e-144
3.05842e-145
6.64865e-146
1.44209e-146
3.12086e-147
6.73879e-148
1.45183e-148
3.12091e-149
6.69388e-150
1.43254e-150
3.05896e-151
6.51745e-152
1.38554e-152
2.93904e-153
6.22062e-154
1.31373e-154
2.7684e-155
5.82103e-156
1.2213e-156
2.5568e-157
5.34107e-158
1.11331e-158
2.3156e-159
4.80586e-160
9.95271e-161
2.05673e-161
4.24109e-162
8.72666e-163
1.79179e-163
3.67113e-164
7.50561e-165
1.53125e-165
3.11735e-166
6.33292e-167
1.28382e-167
2.59708e-168
5.24266e-169
1.0561e-169
2.12298e-170
4.25869e-171
8.52506e-172
1.70299e-172
3.39487e-173
6.75352e-174
1.34071e-174
2.65608e-175
5.25107e-176
1.036e-176
2.03974e-177
4.00771e-178
7.85828e-179
1.53769e-179
3.00276e-180
5.85177e-181
1.13807e-181
2.20885e-182
4.2784e-183
8.27022e-184
1.59542e-184
3.07153e-185
5.90145e-186
1.13159e-186
2.16545e-187
4.13558e-188
7.88234e-189
1.49936e-189
2.84637e-190
5.39277e-191
1.01969e-191
1.92427e-192
3.62411e-193
6.81208e-194
1.27791e-194
2.39258e-195
4.47072e-196
8.33751e-197
1.55183e-197
2.88272e-198
5.34458e-199
9.88956e-200
1.8264e-200
3.36644e-201
6.19304e-202
1.13709e-202
2.08376e-203
3.81121e-204
6.9573e-205
1.26761e-205
2.30512e-206
4.18379e-207
7.57907e-208
1.37035e-208
2.47298e-209
4.45433e-210
8.00789e-211
1.43691e-211
2.57347e-212
4.60032e-213
8.20797e-214
1.46172e-214
2.59823e-215
4.6097e-216
8.16309e-217
1.44285e-217
2.54553e-218
4.48254e-219
7.8788e-220
1.38225e-220
2.42052e-221
4.23082e-222
7.38135e-223
1.28542e-223
2.23435e-224
3.87666e-225
6.71374e-226
1.16058e-226
2.00257e-227
3.44909e-228
5.92963e-229
1.01756e-229
1.743e-230
2.9802e-231
5.08633e-232
8.66514e-233
1.47353e-233
2.50126e-234
4.23812e-235
7.16812e-236
1.21019e-236
2.0395e-237
3.43094e-238
5.76135e-239
9.65735e-240
1.6159e-240
2.69897e-241
4.49995e-242
7.48936e-243
1.24426e-243
2.06351e-244
3.41611e-245
5.64535e-246
9.31284e-247
1.53359e-247
2.52098e-248
4.13684e-249
6.77649e-250
1.1081e-250
1.80882e-251
2.94748e-252
4.79456e-253
7.78558e-254
1.26205e-254
2.04225e-255
3.29904e-256
5.32002e-257
8.56422e-258
1.3763e-258
2.20795e-259
3.53603e-260
5.65324e-261
9.02261e-262
1.43755e-262
2.28649e-263
3.63055e-264
5.75486e-265
9.10661e-266
1.4386e-266
2.26873e-267
3.57181e-268
5.61382e-269
8.80832e-270
1.37973e-270
2.15755e-271
3.36817e-272
5.24925e-273
8.16714e-274
1.26857e-274
1.96711e-275
3.0452e-276
4.70628e-277
7.26129e-278
1.11847e-278
1.71994e-279
2.64047e-280
4.04693e-281
6.19227e-282
9.4592e-283
1.44258e-283
2.19639e-284
3.33858e-285
5.06639e-286
7.67576e-287
1.16099e-287
1.75318e-288
2.64307e-289
3.97816e-290
5.97786e-291
8.96808e-292
1.34322e-292
2.00856e-293
2.99859e-294
4.46936e-295
6.65072e-296
9.88071e-297
1.46557e-297
2.17031e-298
3.20875e-299
4.73643e-300
6.98019e-301
1.02704e-301
1.50871e-302
2.21275e-303
3.24012e-304
4.73693e-305
6.91414e-306
1.0076e-306
1.46603e-307
2.12966e-308
3.08878e-309
4.47274e-310
6.46655e-311
9.33434e-312
1.34527e-312
1.93574e-313
2.781e-314
3.98907e-315
5.71292e-316
8.16888e-317
1.16623e-317
1.66237e-318
2.36588e-319
3.36162e-320
4.76773e-321
6.7687e-322
9.38725e-323
9.88131e-324
0
0
0
0
0
0
0
0
0
0
0
0
0
0
0
0
0
0
0
0
0
0
0
0
0
0
0
0
0
0
0
0
0
0
0
0
0
0
0
0
0
0
0
0
0
0
0
0
0
0
0
0
0
0
0
0
0
0
0
0
0
0
0
0
0
0
0
0
0
0
0
0
0
0
0
0
0
0
0
0
0
0
0
0
0
0
0
0
0
0
0
0
0
0
0
0
0
0
0
0
0
0
0
0
0
0
0
0
0
0
0
0
0
0
0
0
0
0
0
0
0
0
0
0
0
0
0
0
0
0
0
0
0
0
0
0
0
0
0
0
0
0
0
0
0
0
0
0
0
0
0
0
0
0
0
0
0
0
0
0
0
0
0
0
0
0
0
0
0
0
0
0
0
0
0
0
0
0
0
0
0
0
0
0
0
0
0
0
0
0
0
0
0
0
0
0
0
0
0
0
0
0
0
0
0
0
0
0
0
0
0
0
0
0
0
0
0
0
0
0
0
0
0
0
0
0
0
0
0
0
0
0
0
0
0
0
0
0
0
0
0
0
0
0
0
0
0
0
0
0
0
0
0
0
0
0
0
0
0
0
0
0
0
0
0
0
0
0
0
0
0
0
0
0
0
0
0
0
0
0
0
0
0
0
0
0
0
0
0
0
0
0
0
0
0
0
0
0
0
0
0
0
0
0
0
0
0
0
0
0
0
0
0
0
0
0
0
0
0
0
0
0
0
0
0
0
0
0
0
0
0
0
0
0
0
0
0
0
0
0
0
0
0
0
0
0
0
0
0
0
0
0
0
0
0
0
0
0
0
0
0
0
0
0
0
0
0
0
0
0
0
0
0
0
0
0
0
0
0
0
0
0
0
0
0
0
0
0
0
0
0
0
0
0
0
0
0
0
0
0
0
0
0
0
0
0
0
0
0
0
0
0
0
0
0
0
0
0
0
0
0
0
0
0
0
0
0
0
0
0
0
0
0
0
0
0
0
0
0
0
0
0
0
0
0
0
0
0
0
0
0
0
0
0
0
0
0
0
0
0
0
0
0
0
0
0
0
0
0
0
0
0
0
0
0
0
0
0
0
0
0
0
0
0
0
0
0
0
0
0
0
0
0
0
0
0
0
0
0
0
0
0
0
0
0
0
0
0
0
0
0
0
0
0
0
0
0
0
0
0
0
0
0
0
0
0
0
0
0
0
0
0
0
0
0
0
0
0
0
0
0
0
0
0
0
0
0
0
0
0
0
0
0
0
0
0
0
0
0
0
0
0
0
0
0
0
0
0
0
0
0
0
0
0
0
0
0
0
0
0
0
0
0
0
0
0
0
0
0
0
0
0
0
0
0
0
0
0
0
0
0
0
0
0
0
0
0
0
0
0
0
0
0
0
0
0
0
0
0
0
0
0
0
0
0
0
0
0
0
0
0
0
0
0
0
0
0
0
0
0
0
0
0
0
0
0
0
0
0
0
0
0
0
0
0
0
0
0
0
0
0
0
0
0
0
0
0
0
0
0
0
0
0
0
0
0
0
0
0
0
0
0
0
0
0
0
0
0
0
0
0
0
0
0
0
0
0
0
0
0
0
0
0
0
0
0
0
0
0
0
0
0
0
0
0
0
0
0
0
0
0
0
0
0
0
0
0
0
0
0
0
0
0
0
0
0
0
0
0
0
0
0
0
0
0
0
0
0
0
0
0
0
0
0
0
0
0
0
0
0
0
0
0
0
0
0
0
0
0
0
0
0
0
0
0
0
0
0
0
0
0
0
0
0
0
0
0
0
0
0
0
0
0
0
0
0
0
0
0
0
0
0
0
0
0
0
0
0
0
0
0
0
0
0
0
0
0
0
0
0
0
0
0
0
0
0
0
0
0
0
0
0
0
0
0
0
0
0
0
0
0
0
0
0
0
0
0
0
0
0
0
0
0
0
0
0
0
0
0.062787
0.0345542
0.0299575
0.0252771
0.0221392
0.0200069
0.0184496
0.0172639
0.0163156
0.0155313
0.0148654
0.0142885
0.0137811
0.0133296
0.0129239
0.0125566
0.0122219
0.0119153
0.0116331
0.0113722
0.0111302
0.0109051
0.0106952
0.0104992
0.0103165
0.0101466
0.00998984
0.00984695
0.00971927
0.00960858
0.00951678
0.00944545
0.00939506
0.00936383
0.00934652
0.00933283
0.00930606
0.00924196
0.00910838
0.00886624
0.00847221
0.00788363
0.0070662
0.00600401
0.00471196
0.00324755
0.00172017
0.000291394
-0.000835685
-0.00143664
-0.00130014
-0.00026213
0.00177071
0.00481238
0.00880047
0.013612
0.019087
0.0250408
0.0312866
0.0376448
0.0439446
0.0500412
0.0558063
0.0611284
0.0659121
0.0700801
0.0735815
0.0763757
0.0784166
0.0796566
0.0800645
0.0796386
0.0784064
0.0764191
0.0737447
0.070465
0.0666745
0.062481
0.0580036
0.0533663
0.0486901
0.0440832
0.0396356
0.0354157
0.0314708
0.0278293
0.0245038
0.0214946
0.0187928
0.0163831
0.0142463
0.0123608
0.0107039
0.00925334
0.00798733
0.00688539
0.00592852
0.00509932
0.00438202
0.00376248
0.00322812
0.00276776
0.00237158
0.00203095
0.00173832
0.00148713
0.00127164
0.00108689
0.000928598
0.000793039
0.000677005
0.000577727
0.000492826
0.00042025
0.000358239
0.000305275
0.000260053
0.000221453
0.000188515
0.000160423
0.000136477
0.000116072
9.86833e-05
8.38538e-05
7.1195e-05
6.03864e-05
5.11687e-05
4.33273e-05
3.66713e-05
3.10176e-05
2.61929e-05
2.20511e-05
1.84981e-05
1.5503e-05
1.3082e-05
1.12537e-05
9.9819e-06
9.13465e-06
8.48451e-06
7.75966e-06
6.73049e-06
5.29784e-06
3.5438e-06
1.71919e-06
1.66541e-07
-7.9562e-07
-9.85268e-07
-4.24863e-07
6.59508e-07
1.90634e-06
2.92881e-06
3.42808e-06
3.27284e-06
2.52243e-06
1.39175e-06
1.75019e-07
-8.43792e-07
-1.46549e-06
-1.61587e-06
-1.34554e-06
-7.9626e-07
-1.492e-07
4.27229e-07
8.15896e-07
9.68372e-07
9.01308e-07
6.77515e-07
3.80223e-07
8.86957e-08
-1.38999e-07
-2.73681e-07
-3.13879e-07
-2.78519e-07
-1.96974e-07
-9.96163e-08
-1.09473e-08
5.38748e-08
8.93518e-08
9.77368e-08
8.60479e-08
6.30327e-08
3.67754e-08
1.3261e-08
-4.12025e-09
-1.43492e-08
-1.81391e-08
-1.71693e-08
-1.34006e-08
-8.58724e-09
-4.01381e-09
-4.26403e-10
1.90255e-09
3.04106e-09
3.24999e-09
2.85672e-09
2.16674e-09
1.41555e-09
7.53686e-10
2.54157e-10
-6.8567e-11
-2.36571e-10
-2.89048e-10
-2.68014e-10
-2.0968e-10
-1.40637e-10
-7.74569e-11
-2.82734e-11
4.8408e-12
2.34881e-11
3.09945e-11
3.10483e-11
2.69017e-11
2.10193e-11
1.5027e-11
9.82941e-12
5.79614e-12
2.95077e-12
1.12895e-12
9.25687e-14
-3.98251e-13
-5.47402e-13
-5.08975e-13
-3.88081e-13
-2.49003e-13
-1.25755e-13
-3.21261e-14
3.0141e-14
6.5427e-14
8.0368e-14
8.1619e-14
7.47699e-14
6.39926e-14
5.20967e-14
4.07735e-14
3.089e-14
2.27613e-14
1.63689e-14
1.15193e-14
7.94886e-15
5.38724e-15
3.5908e-15
2.35648e-15
1.52404e-15
9.72149e-16
6.1204e-16
3.80542e-16
2.33794e-16
1.41997e-16
8.52962e-17
5.06931e-17
2.98189e-17
1.73657e-17
1.00157e-17
5.72239e-18
3.23954e-18
1.81761e-18
1.01093e-18
5.57485e-19
3.04872e-19
1.65367e-19
8.89811e-20
4.75044e-20
2.51663e-20
1.32317e-20
6.90519e-21
3.57732e-21
1.83998e-21
9.39698e-22
4.76576e-22
2.40043e-22
1.20089e-22
5.96779e-23
2.94619e-23
1.44504e-23
7.04228e-24
3.41029e-24
1.64115e-24
7.8491e-25
3.73108e-25
1.76288e-25
8.27973e-26
3.86581e-26
1.79443e-26
8.28129e-27
3.79999e-27
1.73382e-27
7.86664e-28
3.54944e-28
1.59272e-28
7.10807e-29
3.15513e-29
1.39302e-29
6.11777e-30
2.67267e-30
1.16153e-30
5.02198e-31
2.16019e-31
9.24485e-32
3.93657e-32
1.66788e-32
7.03163e-33
2.94991e-33
1.23151e-33
5.11639e-34
2.11543e-34
8.70479e-35
3.56499e-35
1.45316e-35
5.89574e-36
2.38093e-36
9.57091e-37
3.82975e-37
1.5255e-37
6.04914e-38
2.38795e-38
9.3847e-39
3.67191e-39
1.43038e-39
5.54768e-40
2.14231e-40
8.23719e-41
3.15363e-41
1.20223e-41
4.56377e-42
1.72515e-42
6.49398e-43
2.43435e-43
9.08776e-44
3.37863e-44
1.25096e-44
4.61295e-45
1.69415e-45
6.19693e-46
2.25767e-46
8.19241e-47
2.96102e-47
1.066e-47
3.82269e-48
1.36548e-48
4.85865e-49
1.72214e-49
6.08064e-50
2.1388e-50
7.49441e-51
2.61613e-51
9.09798e-52
3.15211e-52
1.08802e-52
3.7416e-53
1.28196e-53
4.37613e-54
1.48839e-54
5.04381e-55
1.70304e-55
5.72956e-56
1.92068e-56
6.41556e-57
2.13533e-57
7.08198e-58
2.3405e-58
7.70789e-59
2.52953e-59
8.27237e-60
2.69595e-60
8.75568e-61
2.83382e-61
9.14042e-62
2.93816e-62
9.41255e-63
3.00516e-63
9.56231e-64
3.03248e-64
9.58472e-65
3.01934e-65
9.47989e-66
2.96659e-66
9.25295e-67
2.87659e-67
8.91363e-68
2.75307e-68
8.47559e-69
2.60087e-69
7.95552e-70
2.42563e-70
7.37213e-71
2.23345e-71
6.74502e-72
2.03056e-72
6.09369e-73
1.82298e-73
5.43655e-74
1.61626e-74
4.79017e-75
1.41529e-75
4.1687e-76
1.22411e-76
3.58353e-77
1.04586e-77
3.04311e-78
8.82761e-79
2.55303e-79
7.36141e-80
2.11623e-80
6.06547e-81
1.73329e-81
4.93841e-82
1.40287e-82
3.97341e-83
1.1221e-83
3.15955e-84
8.87053e-85
2.48317e-85
6.93111e-86
1.92903e-86
5.35331e-87
1.48134e-87
4.08734e-88
1.12456e-88
3.08524e-89
8.4403e-90
2.30248e-90
6.26334e-91
1.69899e-91
4.59576e-92
1.23967e-92
3.33459e-93
8.94477e-94
2.39271e-94
6.38275e-95
1.69796e-95
4.50454e-96
1.19174e-96
3.1443e-97
8.27335e-98
2.17099e-98
5.68138e-99
1.48278e-99
3.85945e-100
1.00186e-100
2.59371e-101
6.69693e-102
1.72453e-102
4.42902e-103
1.13447e-103
2.89821e-104
7.38447e-105
1.87657e-105
4.75632e-106
1.20238e-106
3.03162e-107
7.6239e-108
1.91228e-108
4.78411e-109
1.19379e-109
2.97123e-110
7.37611e-111
1.82644e-111
4.51098e-112
1.1113e-112
2.73076e-113
6.69321e-114
1.63639e-114
3.99062e-115
9.70737e-116
2.35544e-116
5.70102e-117
1.37641e-117
3.31482e-118
7.96327e-119
1.90829e-119
4.56167e-120
1.08775e-120
2.58741e-121
6.13952e-122
1.45324e-122
3.43147e-123
8.0828e-124
1.89927e-124
4.45202e-125
1.04106e-125
2.42853e-126
5.6515e-127
1.31202e-127
3.0386e-128
7.0205e-129
1.61817e-129
3.72088e-130
8.53561e-131
1.95341e-131
4.45988e-132
1.01585e-132
2.30839e-133
5.23323e-134
1.18362e-134
2.67077e-135
6.0124e-136
1.35035e-136
3.02578e-137
6.76424e-138
1.50868e-138
3.35715e-139
7.45322e-140
1.65089e-140
3.64836e-141
8.04417e-142
1.76959e-142
3.88397e-143
8.50532e-144
1.85831e-144
4.05102e-145
8.81107e-146