# vtk DataFile Version 2.0
FlowField
ASCII
DATASET STRUCTURED_GRID
DIMENSIONS 1602 1 52
POINTS 83304 float
0 0 0
0.1 0 0
0.2 0 0
0.3 0 0
0.4 0 0
0.5 0 0
0.6 0 0
0.7 0 0
0.8 0 0
0.9 0 0
1 0 0
1.1 0 0
1.2 0 0
1.3 0 0
1.4 0 0
1.5 0 0
1.6 0 0
1.7 0 0
1.8 0 0
1.9 0 0
2 0 0
2.1 0 0
2.2 0 0
2.3 0 0
2.4 0 0
2.5 0 0
2.6 0 0
2.7 0 0
2.8 0 0
2.9 0 0
3 0 0
3.1 0 0
3.2 0 0
3.3 0 0
3.4 0 0
3.5 0 0
3.6 0 0
3.7 0 0
3.8 0 0
3.9 0 0
4 0 0
4.1 0 0
4.2 0 0
4.3 0 0
4.4 0 0
4.5 0 0
4.6 0 0
4.7 0 0
4.8 0 0
4.9 0 0
5 0 0
5.1 0 0
5.2 0 0
5.3 0 0
5.4 0 0
5.5 0 0
5.6 0 0
5.7 0 0
5.8 0 0
5.9 0 0
6 0 0
6.1 0 0
6.2 0 0
6.3 0 0
6.4 0 0
6.5 0 0
6.6 0 0
6.7 0 0
6.8 0 0
6.9 0 0
7 0 0
7.1 0 0
7.2 0 0
7.3 0 0
7.4 0 0
7.5 0 0
7.6 0 0
7.7 0 0
7.8 0 0
7.9 0 0
8 0 0
8.1 0 0
8.2 0 0
8.3 0 0
8.4 0 0
8.5 0 0
8.6 0 0
8.7 0 0
8.8 0 0
8.9 0 0
9 0 0
9.1 0 0
9.2 0 0
9.3 0 0
9.4 0 0
9.5 0 0
9.6 0 0
9.7 0 0
9.8 0 0
9.9 0 0
10 0 0
10.1 0 0
10.2 0 0
10.3 0 0
10.4 0 0
10.5 0 0
10.6 0 0
10.7 0 0
10.8 0 0
10.9 0 0
11 0 0
11.1 0 0
11.2 0 0
11.3 0 0
11.4 0 0
11.5 0 0
11.6 0 0
11.7 0 0
11.8 0 0
11.9 0 0
12 0 0
12.1 0 0
12.2 0 0
12.3 0 0
12.4 0 0
12.5 0 0
12.6 0 0
12.7 0 0
12.8 0 0
12.9 0 0
13 0 0
13.1 0 0
13.2 0 0
13.3 0 0
13.4 0 0
13.5 0 0
13.6 0 0
13.7 0 0
13.8 0 0
13.9 0 0
14 0 0
14.1 0 0
14.2 0 0
14.3 0 0
14.4 0 0
14.5 0 0
14.6 0 0
14.7 0 0
14.8 0 0
14.9 0 0
15 0 0
15.1 0 0
15.2 0 0
15.3 0 0
15.4 0 0
15.5 0 0
15.6 0 0
15.7 0 0
15.8 0 0
15.9 0 0
16 0 0
16.1 0 0
16.2 0 0
16.3 0 0
16.4 0 0
16.5 0 0
16.6 0 0
16.7 0 0
16.8 0 0
16.9 0 0
17 0 0
17.1 0 0
17.2 0 0
17.3 0 0
17.4 0 0
17.5 0 0
17.6 0 0
17.7 0 0
17.8 0 0
17.9 0 0
18 0 0
18.1 0 0
18.2 0 0
18.3 0 0
18.4 0 0
18.5 0 0
18.6 0 0
18.7 0 0
18.8 0 0
18.9 0 0
19 0 0
19.1 0 0
19.2 0 0
19.3 0 0
19.4 0 0
19.5 0 0
19.6 0 0
19.7 0 0
19.8 0 0
19.9 0 0
20 0 0
20.1 0 0
20.2 0 0
20.3 0 0
20.4 0 0
20.5 0 0
20.6 0 0
20.7 0 0
20.8 0 0
20.9 0 0
21 0 0
21.1 0 0
21.2 0 0
21.3 0 0
21.4 0 0
21.5 0 0
21.6 0 0
21.7 0 0
21.8 0 0
21.9 0 0
22 0 0
22.1 0 0
22.2 0 0
22.3 0 0
22.4 0 0
22.5 0 0
22.6 0 0
22.7 0 0
22.8 0 0
22.9 0 0
23 0 0
23.1 0 0
23.2 0 0
23.3 0 0
23.4 0 0
23.5 0 0
23.6 0 0
23.7 0 0
23.8 0 0
23.9 0 0
24 0 0
24.1 0 0
24.2 0 0
24.3 0 0
24.4 0 0
24.5 0 0
24.6 0 0
24.7 0 0
24.8 0 0
24.9 0 0
25 0 0
25.1 0 0
25.2 0 0
25.3 0 0
25.4 0 0
25.5 0 0
25.6 0 0
25.7 0 0
25.8 0 0
25.9 0 0
26 0 0
26.1 0 0
26.2 0 0
26.3 0 0
26.4 0 0
26.5 0 0
26.6 0 0
26.7 0 0
26.8 0 0
26.9 0 0
27 0 0
27.1 0 0
27.2 0 0
27.3 0 0
27.4 0 0
27.5 0 0
27.6 0 0
27.7 0 0
27.8 0 0
27.9 0 0
28 0 0
28.1 0 0
28.2 0 0
28.3 0 0
28.4 0 0
28.5 0 0
28.6 0 0
28.7 0 0
28.8 0 0
28.9 0 0
29 0 0
29.1 0 0
29.2 0 0
29.3 0 0
29.4 0 0
29.5 0 0
29.6 0 0
29.7 0 0
29.8 0 0
29.9 0 0
30 0 0
30.1 0 0
30.2 0 0
30.3 0 0
30.4 0 0
30.5 0 0
30.6 0 0
30.7 0 0
30.8 0 0
30.9 0 0
31 0 0
31.1 0 0
31.2 0 0
31.3 0 0
31.4 0 0
31.5 0 0
31.6 0 0
31.7 0 0
31.8 0 0
31.9 0 0
32 0 0
32.1 0 0
32.2 0 0
32.3 0 0
32.4 0 0
32.5 0 0
32.6 0 0
32.7 0 0
32.8 0 0
32.9 0 0
33 0 0
33.1 0 0
33.2 0 0
33.3 0 0
33.4 0 0
33.5 0 0
33.6 0 0
33.7 0 0
33.8 0 0
33.9 0 0
34 0 0
34.1 0 0
34.2 0 0
34.3 0 0
34.4 0 0
34.5 0 0
34.6 0 0
34.7 0 0
34.8 0 0
34.9 0 0
35 0 0
35.1 0 0
35.2 0 0
35.3 0 0
35.4 0 0
35.5 0 0
35.6 0 0
35.7 0 0
35.8 0 0
35.9 0 0
36 0 0
36.1 0 0
36.2 0 0
36.3 0 0
36.4 0 0
36.5 0 0
36.6 0 0
36.7 0 0
36.8 0 0
36.9 0 0
37 0 0
37.1 0 0
37.2 0 0
37.3 0 0
37.4 0 0
37.5 0 0
37.6 0 0
37.7 0 0
37.8 0 0
37.9 0 0
38 0 0
38.1 0 0
38.2 0 0
38.3 0 0
38.4 0 0
38.5 0 0
38.6 0 0
38.7 0 0
38.8 0 0
38.9 0 0
39 0 0
39.1 0 0
39.2 0 0
39.3 0 0
39.4 0 0
39.5 0 0
39.6 0 0
39.7 0 0
39.8 0 0
39.9 0 0
40 0 0
40.1 0 0
40.2 0 0
40.3 0 0
40.4 0 0
40.5 0 0
40.6 0 0
40.7 0 0
40.8 0 0
40.9 0 0
41 0 0
41.1 0 0
41.2 0 0
41.3 0 0
41.4 0 0
41.5 0 0
41.6 0 0
41.7 0 0
41.8 0 0
41.9 0 0
42 0 0
42.1 0 0
42.2 0 0
42.3 0 0
42.4 0 0
42.5 0 0
42.6 0 0
42.7 0 0
42.8 0 0
42.9 0 0
43 0 0
43.1 0 0
43.2 0 0
43.3 0 0
43.4 0 0
43.5 0 0
43.6 0 0
43.7 0 0
43.8 0 0
43.9 0 0
44 0 0
44.1 0 0
44.2 0 0
44.3 0 0
44.4 0 0
44.5 0 0
44.6 0 0
44.7 0 0
44.8 0 0
44.9 0 0
45 0 0
45.1 0 0
45.2 0 0
45.3 0 0
45.4 0 0
45.5 0 0
45.6 0 0
45.7 0 0
45.8 0 0
45.9 0 0
46 0 0
46.1 0 0
46.2 0 0
46.3 0 0
46.4 0 0
46.5 0 0
46.6 0 0
46.7 0 0
46.8 0 0
46.9 0 0
47 0 0
47.1 0 0
47.2 0 0
47.3 0 0
47.4 0 0
47.5 0 0
47.6 0 0
47.7 0 0
47.8 0 0
47.9 0 0
48 0 0
48.1 0 0
48.2 0 0
48.3 0 0
48.4 0 0
48.5 0 0
48.6 0 0
48.7 0 0
48.8 0 0
48.9 0 0
49 0 0
49.1 0 0
49.2 0 0
49.3 0 0
49.4 0 0
49.5 0 0
49.6 0 0
49.7 0 0
49.8 0 0
49.9 0 0
50 0 0
50.1 0 0
50.2 0 0
50.3 0 0
50.4 0 0
50.5 0 0
50.6 0 0
50.7 0 0
50.8 0 0
50.9 0 0
51 0 0
51.1 0 0
51.2 0 0
51.3 0 0
51.4 0 0
51.5 0 0
51.6 0 0
51.7 0 0
51.8 0 0
51.9 0 0
52 0 0
52.1 0 0
52.2 0 0
52.3 0 0
52.4 0 0
52.5 0 0
52.6 0 0
52.7 0 0
52.8 0 0
52.9 0 0
53 0 0
53.1 0 0
53.2 0 0
53.3 0 0
53.4 0 0
53.5 0 0
53.6 0 0
53.7 0 0
53.8 0 0
53.9 0 0
54 0 0
54.1 0 0
54.2 0 0
54.3 0 0
54.4 0 0
54.5 0 0
54.6 0 0
54.7 0 0
54.8 0 0
54.9 0 0
55 0 0
55.1 0 0
55.2 0 0
55.3 0 0
55.4 0 0
55.5 0 0
55.6 0 0
55.7 0 0
55.8 0 0
55.9 0 0
56 0 0
56.1 0 0
56.2 0 0
56.3 0 0
56.4 0 0
56.5 0 0
56.6 0 0
56.7 0 0
56.8 0 0
56.9 0 0
57 0 0
57.1 0 0
57.2 0 0
57.3 0 0
57.4 0 0
57.5 0 0
57.6 0 0
57.7 0 0
57.8 0 0
57.9 0 0
58 0 0
58.1 0 0
58.2 0 0
58.3 0 0
58.4 0 0
58.5 0 0
58.6 0 0
58.7 0 0
58.8 0 0
58.9 0 0
59 0 0
59.1 0 0
59.2 0 0
59.3 0 0
59.4 0 0
59.5 0 0
59.6 0 0
59.7 0 0
59.8 0 0
59.9 0 0
60 0 0
60.1 0 0
60.2 0 0
60.3 0 0
60.4 0 0
60.5 0 0
60.6 0 0
60.7 0 0
60.8 0 0
60.9 0 0
61 0 0
61.1 0 0
61.2 0 0
61.3 0 0
61.4 0 0
61.5 0 0
61.6 0 0
61.7 0 0
61.8 0 0
61.9 0 0
62 0 0
62.1 0 0
62.2 0 0
62.3 0 0
62.4 0 0
62.5 0 0
62.6 0 0
62.7 0 0
62.8 0 0
62.9 0 0
63 0 0
63.1 0 0
63.2 0 0
63.3 0 0
63.4 0 0
63.5 0 0
63.6 0 0
63.7 0 0
63.8 0 0
63.9 0 0
64 0 0
64.1 0 0
64.2 0 0
64.3 0 0
64.4 0 0
64.5 0 0
64.6 0 0
64.7 0 0
64.8 0 0
64.9 0 0
65 0 0
65.1 0 0
65.2 0 0
65.3 0 0
65.4 0 0
65.5 0 0
65.6 0 0
65.7 0 0
65.8 0 0
65.9 0 0
66 0 0
66.1 0 0
66.2 0 0
66.3 0 0
66.4 0 0
66.5 0 0
66.6 0 0
66.7 0 0
66.8 0 0
66.9 0 0
67 0 0
67.1 0 0
67.2 0 0
67.3 0 0
67.4 0 0
67.5 0 0
67.6 0 0
67.7 0 0
67.8 0 0
67.9 0 0
68 0 0
68.1 0 0
68.2 0 0
68.3 0 0
68.4 0 0
68.5 0 0
68.6 0 0
68.7 0 0
68.8 0 0
68.9 0 0
69 0 0
69.1 0 0
69.2 0 0
69.3 0 0
69.4 0 0
69.5 0 0
69.6 0 0
69.7 0 0
69.8 0 0
69.9 0 0
70 0 0
70.1 0 0
70.2 0 0
70.3 0 0
70.4 0 0
70.5 0 0
70.6 0 0
70.7 0 0
70.8 0 0
70.9 0 0
71 0 0
71.1 0 0
71.2 0 0
71.3 0 0
71.4 0 0
71.5 0 0
71.6 0 0
71.7 0 0
71.8 0 0
71.9 0 0
72 0 0
72.1 0 0
72.2 0 0
72.3 0 0
72.4 0 0
72.5 0 0
72.6 0 0
72.7 0 0
72.8 0 0
72.9 0 0
73 0 0
73.1 0 0
73.2 0 0
73.3 0 0
73.4 0 0
73.5 0 0
73.6 0 0
73.7 0 0
73.8 0 0
73.9 0 0
74 0 0
74.1 0 0
74.2 0 0
74.3 0 0
74.4 0 0
74.5 0 0
74.6 0 0
74.7 0 0
74.8 0 0
74.9 0 0
75 0 0
75.1 0 0
75.2 0 0
75.3 0 0
75.4 0 0
75.5 0 0
75.6 0 0
75.7 0 0
75.8 0 0
75.9 0 0
76 0 0
76.1 0 0
76.2 0 0
76.3 0 0
76.4 0 0
76.5 0 0
76.6 0 0
76.7 0 0
76.8 0 0
76.9 0 0
77 0 0
77.1 0 0
77.2 0 0
77.3 0 0
77.4 0 0
77.5 0 0
77.6 0 0
77.7 0 0
77.8 0 0
77.9 0 0
78 0 0
78.1 0 0
78.2 0 0
78.3 0 0
78.4 0 0
78.5 0 0
78.6 0 0
78.7 0 0
78.8 0 0
78.9 0 0
79 0 0
79.1 0 0
79.2 0 0
79.3 0 0
79.4 0 0
79.5 0 0
79.6 0 0
79.7 0 0
79.8 0 0
79.9 0 0
80 0 0
80.1 0 0
80.2 0 0
80.3 0 0
80.4 0 0
80.5 0 0
80.6 0 0
80.7 0 0
80.8 0 0
80.9 0 0
81 0 0
81.1 0 0
81.2 0 0
81.3 0 0
81.4 0 0
81.5 0 0
81.6 0 0
81.7 0 0
81.8 0 0
81.9 0 0
82 0 0
82.1 0 0
82.2 0 0
82.3 0 0
82.4 0 0
82.5 0 0
82.6 0 0
82.7 0 0
82.8 0 0
82.9 0 0
83 0 0
83.1 0 0
83.2 0 0
83.3 0 0
83.4 0 0
83.5 0 0
83.6 0 0
83.7 0 0
83.8 0 0
83.9 0 0
84 0 0
84.1 0 0
84.2 0 0
84.3 0 0
84.4 0 0
84.5 0 0
84.6 0 0
84.7 0 0
84.8 0 0
84.9 0 0
85 0 0
85.1 0 0
85.2 0 0
85.3 0 0
85.4 0 0
85.5 0 0
85.6 0 0
85.7 0 0
85.8 0 0
85.9 0 0
86 0 0
86.1 0 0
86.2 0 0
86.3 0 0
86.4 0 0
86.5 0 0
86.6 0 0
86.7 0 0
86.8 0 0
86.9 0 0
87 0 0
87.1 0 0
87.2 0 0
87.3 0 0
87.4 0 0
87.5 0 0
87.6 0 0
87.7 0 0
87.8 0 0
87.9 0 0
88 0 0
88.1 0 0
88.2 0 0
88.3 0 0
88.4 0 0
88.5 0 0
88.6 0 0
88.7 0 0
88.8 0 0
88.9 0 0
89 0 0
89.1 0 0
89.2 0 0
89.3 0 0
89.4 0 0
89.5 0 0
89.6 0 0
89.7 0 0
89.8 0 0
89.9 0 0
90 0 0
90.1 0 0
90.2 0 0
90.3 0 0
90.4 0 0
90.5 0 0
90.6 0 0
90.7 0 0
90.8 0 0
90.9 0 0
91 0 0
91.1 0 0
91.2 0 0
91.3 0 0
91.4 0 0
91.5 0 0
91.6 0 0
91.7 0 0
91.8 0 0
91.9 0 0
92 0 0
92.1 0 0
92.2 0 0
92.3 0 0
92.4 0 0
92.5 0 0
92.6 0 0
92.7 0 0
92.8 0 0
92.9 0 0
93 0 0
93.1 0 0
93.2 0 0
93.3 0 0
93.4 0 0
93.5 0 0
93.6 0 0
93.7 0 0
93.8 0 0
93.9 0 0
94 0 0
94.1 0 0
94.2 0 0
94.3 0 0
94.4 0 0
94.5 0 0
94.6 0 0
94.7 0 0
94.8 0 0
94.9 0 0
95 0 0
95.1 0 0
95.2 0 0
95.3 0 0
95.4 0 0
95.5 0 0
95.6 0 0
95.7 0 0
95.8 0 0
95.9 0 0
96 0 0
96.1 0 0
96.2 0 0
96.3 0 0
96.4 0 0
96.5 0 0
96.6 0 0
96.7 0 0
96.8 0 0
96.9 0 0
97 0 0
97.1 0 0
97.2 0 0
97.3 0 0
97.4 0 0
97.5 0 0
97.6 0 0
97.7 0 0
97.8 0 0
97.9 0 0
98 0 0
98.1 0 0
98.2 0 0
98.3 0 0
98.4 0 0
98.5 0 0
98.6 0 0
98.7 0 0
98.8 0 0
98.9 0 0
99 0 0
99.1 0 0
99.2 0 0
99.3 0 0
99.4 0 0
99.5 0 0
99.6 0 0
99.7 0 0
99.8 0 0
99.9 0 0
100 0 0
100.1 0 0
100.2 0 0
100.3 0 0
100.4 0 0
100.5 0 0
100.6 0 0
100.7 0 0
100.8 0 0
100.9 0 0
101 0 0
101.1 0 0
101.2 0 0
101.3 0 0
101.4 0 0
101.5 0 0
101.6 0 0
101.7 0 0
101.8 0 0
101.9 0 0
102 0 0
102.1 0 0
102.2 0 0
102.3 0 0
102.4 0 0
102.5 0 0
102.6 0 0
102.7 0 0
102.8 0 0
102.9 0 0
103 0 0
103.1 0 0
103.2 0 0
103.3 0 0
103.4 0 0
103.5 0 0
103.6 0 0
103.7 0 0
103.8 0 0
103.9 0 0
104 0 0
104.1 0 0
104.2 0 0
104.3 0 0
104.4 0 0
104.5 0 0
104.6 0 0
104.7 0 0
104.8 0 0
104.9 0 0
105 0 0
105.1 0 0
105.2 0 0
105.3 0 0
105.4 0 0
105.5 0 0
105.6 0 0
105.7 0 0
105.8 0 0
105.9 0 0
106 0 0
106.1 0 0
106.2 0 0
106.3 0 0
106.4 0 0
106.5 0 0
106.6 0 0
106.7 0 0
106.8 0 0
106.9 0 0
107 0 0
107.1 0 0
107.2 0 0
107.3 0 0
107.4 0 0
107.5 0 0
107.6 0 0
107.7 0 0
107.8 0 0
107.9 0 0
108 0 0
108.1 0 0
108.2 0 0
108.3 0 0
108.4 0 0
108.5 0 0
108.6 0 0
108.7 0 0
108.8 0 0
108.9 0 0
109 0 0
109.1 0 0
109.2 0 0
109.3 0 0
109.4 0 0
109.5 0 0
109.6 0 0
109.7 0 0
109.8 0 0
109.9 0 0
110 0 0
110.1 0 0
110.2 0 0
110.3 0 0
110.4 0 0
110.5 0 0
110.6 0 0
110.7 0 0
110.8 0 0
110.9 0 0
111 0 0
111.1 0 0
111.2 0 0
111.3 0 0
111.4 0 0
111.5 0 0
111.6 0 0
111.7 0 0
111.8 0 0
111.9 0 0
112 0 0
[...]
POINT_DATA 83304

SCALARS pressure float 1
LOOKUP_TABLE default
0
0
0
0
0
0
0
0
0
0
0
0
0
0
0
0
0
0
0
0
0
0
0
0
0
0
0
0
0
0
0
0
0
0
0
0
0
0
0
0
0
0
0
0
0
0
0
0
0
0
0
0
0
0
0
0
0
0
0
0
0
0
0
0
0
0
0
0
0
0
0
0
0
0
0
0
0
0
0
0
0
0
0
0
0
0
0
0
0
0
0
0
0
0
0
0
0
0
0
0
0
0
0
0
0
0
0
0
0
0
0
0
0
0
0
0
0
0
0
0
0
0
0
0
0
0
0
0
0
0
0
0
0
0
0
0
0
0
0
0
0
0
0
0
0
0
0
0
0
0
0
0
0
0
0
0
0
0
0
0
0
0
0
0
0
0
0
0
0
0
0
0
0
0
0
0
0
0
0
0
0
0
0
0
0
0
0
0
0
0
0
0
0
0
0
0
0
0
0
0
0
0
0
0
0
0
0
0
0
0
0
0
0
0
0
0
0
0
0
0
0
0
0
0
0
0
0
0
0
0
0
0
0
0
0
0
0
0
0
0
0
0
0
0
0
0
0
0
0
0
0
0
0
0
0
0
0
0
0
0
0
0
0
0
0
0
0
0
0
0
0
0
0
0
0
0
0
0
0
0
0
0
0
0
0
0
0
0
0
0
0
0
0
0
0
0
0
0
0
0
0
0
0
0
0
0
0
0
0
0
0
0
0
0
0
0
0
0
0
0
0
0
0
0
0
0
0
0
0
0
0
0
0
0
0
0
0
0
0
0
0
0
0
0
0
0
0
0
0
0
0
0
0
0
0
0
0
0
0
0
0
0
0
0
0
0
0
0
0
0
0
0
0
0
0
0
0
0
0
0
0
0
0
0
0
0
0
0
0
0
0
0
0
0
0
0
0
0
0
0
0
0
0
0
0
0
0
0
0
0
0
0
0
0
0
0
0
0
0
0
0
0
0
0
0
0
0
0
0
0
0
0
0
0
0
0
0
0
0
0
0
0
0
0
0
0
0
0
0
0
0
0
0
0
0
0
0
0
0
0
0
0
0
0
0
0
0
0
0
0
0
0
0
0
0
0
0
0
0
0
0
0
0
0
0
0
0
0
0
0
0
0
0
0
0
0
0
0
0
0
0
0
0
0
0
0
0
0
0
0
0
0
0
0
0
0
0
0
0
0
0
0
0
0
0
0
0
0
0
0
0
0
0
0
0
0
0
0
0
0
0
0
0
0
0
0
0
0
0
0
0
0
0
0
0
0
0
0
0
0
0
0
0
0
0
0
0
0
0
0
0
0
0
0
0
0
0
0
0
0
0
0
0
0
0
0
0
0
0
0
0
0
0
0
0
0
0
0
0
0
0
0
0
0
0
0
0
0
0
0
0
0
0
0
0
0
0
0
0
0
0
0
0
0
0
0
0
0
0
0
0
0
0
0
0
0
0
0
0
0
0
0
0
0
0
0
0
0
0
0
0
0
0
0
0
0
0
0
0
0
0
0
0
0
0
0
0
0
0
0
0
0
0
0
0
0
0
0
0
0
0
0
0
0
0
0
0
0
0
0
0
0
0
0
0
0
0
0
0
0
0
0
0
0
0
0
0
0
0
0
0
0
0
0
0
0
0
0
0
0
0
0
0
0
0
0
0
0
0
0
0
0
0
0
0
0
0
0
0
0
0
0
0
0
0
0
0
0
0
0
0
0
0
0
0
0
0
0
0
0
0
0
0
0
0
0
0
0
0
0
0
0
0
0
0
0
0
0
0
0
0
0
0
0
0
0
0
0
0
0
0
0
0
0
0
0
0
0
0
0
0
0
0
0
0
0
0
0
0
0
0
0
0
0
0
0
0
0
0
0
0
0
0
0
0
0
0
0
0
0
0
0
0
0
0
0
0
0
0
0
0
0
0
0
0
0
0
0
0
0
0
0
0
0
0
0
0
0
0
0
0
0
0
0
0
0
0
0
0
0
0
0
0
0
0
0
0
0
0
0
0
0
0
0
0
0
0
0
0
0
0
0
0
0
0
0
0
0
0
0
0
0
0
0
0
0
0
0
0
0
0
0
0
0
0
0
0
0
0
0
0
0
0
0
0
0
0
0
0
0
0
0
0
0
0
0
0
0
0
0
0
0
0
0
0
0
0
0
0
0
0
0
0
0
0
0
0
0
0
0
0
0
0
0
0
0
0
0
0
0
0
0
0
0
0
0
0
0
0
0
0
0
0
0
0
0
0
0
0
0
0
0
0
0
0
0
0
0
0
0
0
0
0
0
0
0
0
0
0
0
0
0
0
0
0
0
0
0
0
0
0
0
0
0
0
0
0
0
0
0
0
0
0
0
0
0
0
0
0
0
0
0
0
0
0
0
0
0
0
0
0
0
0
0
0
0
0
0
0
0
0
0
0
0
0
0
0
0
0
0
0
0
0
0
0
0
0
0
0
0
0
0
0
0
0
0
0
0
0
0
0
0
0
0
0
0
0
0
0
0
0
0
0
0
0
0
0
0
0
0
0
0
0
0
0
0
0
0
0
0
0
0
0
0
0
0
0
0
0
0
0
0
0
0
0
0
0
0
0
0
0
0
0
0
0
0
0
0
0
0
0
0
0
0
0
0
0
0
0
0
0
0
0
0
0
0
0
0
0
0
0
0
0
0
0
0
0
0
0
0
0
0
0
0
0
0
0
0
0
0
0
0
0
0
0
0
0
0
0
0
0
0
0
0
0
0
0
0
0
0
0
0
0
0
0
0
0
0
0
0
0
0
0
0
0
0
0
0
0
0
0
0
0
0
0
0
0
0
0
0
0
0
0
0
0
0
0
0
0
0
0
0
0
0
0
0
0
0
0
0
0
0
0
0
0
0
0
0
0
0
0
0
0
0
0
0
0
0
0
0
0
0
0
0
0
0
0
0
0
0
0
0
0
0
0
0
0
0
0
0
0
0
0
0
0
0
0
0
0
0
0
0
0
0
0
0
0
0
0
0
0
0
0
0
0
0
0
0
0
0
0
0
0
0
0
0
0
0
0
0
0
0
0
0
0
0
0
0
0
0
0
0
0
0
0
0
0
0
0
0
0
0
0
0
0
0
0
0
0
0
0
0
0
0
0
0
0
0
0
0
0
0
0
0
0
0
0
0
0
0
0
0
0
0
0
0
0
0
0
0
0
0
0
0
0
0
0
0
0
0
0
0
0
0
0
0
0
0
0
0
0
0
0
0
0
0
0
0
0
0
0
0
0
0
0
0
0
0
0
0
0
0
0
0
0
0
0
0
0
0
0
0
0
0
0
0
0
0
0
0
0
0
0
0
0
0
0
0
0
0
0
0
0
0
0
0
0
0
0
0
0
0
0
0
0
0
0
0
0
0
0
0
0
0
0
0
0
0
0
0
0
0
0
0
0
0
0
0
0
0
0
0
0
0
0
0
0
0
0
0
0
0
0
0
0
0
0
0
0
0
0
0
0
0
0
0
0
0
0
0
0
0
0
0
0
0
0
0
0
0
0
0
0
0
0
0
0
0
0
0
0
0
0
0
0
0
0
0
0
0
0
0
0
0
0
0
0
0
0
0
0
0
0
0
0
0
0
0
0
0
0
0
0
0
0
0
0
0
0
0
0
0
0
0.0776415
0.052903
0.0436505
0.0357426
0.03048
0.0271088
0.0248019
0.023116
0.0218008
0.0207277
0.0198235
0.0190436
0.0183596
0.0177519
0.0172066
0.0167134
0.0162643
0.0158532
0.0154749
0.0151254
0.0148012
0.0144993
0.0142174
0.0139533
0.0137051
0.0134714
0.0132506
0.0130416
0.0128434
0.0126549
0.0124753
0.0123039
0.0121401
0.0119833
0.0118328
0.0116884
0.0115494
0.0114156
0.0112866
0.0111621
0.0110418
0.0109254
0.0108128
0.0107037
0.0105979
0.0104952
0.0103955
0.0102987
0.0102045
0.0101129
0.0100238
0.00993702
0.0098525
0.00977015
0.00968989
0.00961163
0.00953532
0.00946088
0.00938825
0.00931738
0.00924821
0.0091807
0.0091148
0.00905046
0.00898765
0.00892632
0.00886645
0.00880799
0.00875091
0.00869519
0.00864078
0.00858767
0.00853583
0.00848523
0.00843584
0.00838765
0.00834062
0.00829473
0.00824997
0.0082063
0.00816371
0.00812218
0.00808168
0.0080422
0.00800371
0.0079662
0.00792964
0.00789401
0.0078593
0.00782548
0.00779253
0.00776045
0.0077292
0.00769878
0.00766916
0.00764034
0.00761229
0.007585
0.00755847
0.00753267
0.0075076
0.00748325
0.0074596
0.00743663
0.00741433
0.00739268
0.00737164
0.00735119
0.0073313
0.00731193
0.00729303
0.00727458
0.00725653
0.00723886
0.00722155
0.00720461
0.00718805
0.00717191
0.00715625
0.00714114
0.00712666
0.00711291
0.00709994
0.00708779
0.00707646
0.00706589
0.00705592
0.00704633
0.00703682
0.00702703
0.00701659
0.00700513
0.0069924
0.00697831
0.00696304
0.00694714
0.00693157
0.00691777
0.00690767
0.00690358
0.00690807
0.00692375
0.00695285
0.00699686
0.00705597
0.0071285
0.00721036
0.00729452
0.00737067
0.00742499
0.00744036
0.00739684
0.00727272
0.00704609
0.00669704
0.00621063
0.00558044
0.00481269
0.00393064
0.00297857
0.00202469
0.00116171
0.000504212
0.00018183
0.000328676
0.00107022
0.00250955
0.00471585
0.00771594
0.0114934
0.0159899
0.0211082
0.0267245
0.0326986
0.0388738
0.0450783
0.0511495
0.0569407
0.0622926
0.0670212
0.0709682
0.0740644
0.0763271
0.0777967
0.0784885
0.0783984
0.0775359
0.0759445
0.0737002
0.0708991
0.067645
0.064043
0.0601949
0.0561967
0.0521357
0.0480888
0.0441211
0.0402853
0.0366216
0.0331591
0.0299167
0.0269045
0.0241258
0.0215782
0.0192548
0.017146
0.0152397
0.0135229
0.0119816
0.0106019
0.00936976
0.00827193
0.00729566
0.00642899
0.00566081
0.00498086
0.00437974
0.00384888
0.00338055
0.00296773
0.00260414
0.00228414
0.00200267
0.00175526
0.00153789
0.00134701
0.00117946
0.00103247
0.000903551
0.000790528
0.000691473
0.000604687
0.000528674
0.000462115
0.00040385
0.000352858
0.000308243
0.000269217
0.000235086
0.000205244
0.000179157
0.000156357
0.000136434
0.000119029
0.000103827
9.05499e-05
7.89576e-05
6.88377e-05
6.00049e-05
5.22967e-05
4.55713e-05
3.97043e-05
3.45871e-05
3.01245e-05
2.62335e-05
2.28415e-05
1.98849e-05
1.73083e-05
1.50632e-05
1.31073e-05
1.14036e-05
9.91987e-06
8.62783e-06
7.50294e-06
6.52372e-06
5.67145e-06
4.92977e-06
4.28445e-06
3.72305e-06
3.23473e-06
2.81004e-06
2.44075e-06
2.11969e-06
1.84058e-06
1.598e-06
1.38719e-06
1.20401e-06
1.04487e-06
9.06638e-07
7.8658e-07
6.82323e-07
5.91801e-07
5.13216e-07
4.45003e-07
3.85803e-07
3.34432e-07
2.89861e-07
2.51195e-07
2.17657e-07
1.8857e-07
1.63348e-07
1.41481e-07
1.22524e-07
1.06092e-07
9.18522e-08
7.95126e-08
6.88214e-08
5.95598e-08
5.15376e-08
4.459e-08
3.85738e-08
3.33649e-08
2.88556e-08
2.49524e-08
2.15743e-08
1.86511e-08
1.61219e-08
1.39338e-08
1.20411e-08
1.04041e-08
8.98856e-09
7.76456e-09
6.70637e-09
5.79164e-09
5.00103e-09
4.31779e-09
3.72741e-09
3.21734e-09
2.77671e-09
2.39612e-09
2.06743e-09
1.78359e-09
1.53853e-09
1.32697e-09
1.14435e-09
9.86739e-10
8.50726e-10
7.33367e-10
6.32117e-10
5.44776e-10
4.69443e-10
4.04475e-10
3.48453e-10
3.00152e-10
2.58514e-10
2.22623e-10
1.9169e-10
1.65034e-10
1.42066e-10
1.22279e-10
1.05235e-10
9.0554e-11
7.79113e-11
6.7025e-11
5.76524e-11
4.95839e-11
4.2639e-11
3.66621e-11
3.15188e-11
2.70935e-11
2.32864e-11
2.00117e-11
1.71952e-11
1.47731e-11
1.26905e-11
1.09001e-11
9.36094e-12
8.03807e-12
6.90121e-12
5.92434e-12
5.08505e-12
4.36407e-12
3.7448e-12
3.21297e-12
2.75629e-12
2.36419e-12
2.02759e-12
1.73867e-12
1.49071e-12
1.27793e-12
1.09537e-12
9.38749e-13
8.04404e-13
6.89182e-13
5.90373e-13
5.05653e-13
4.33021e-13
3.70762e-13
3.17404e-13
2.71683e-13
2.32517e-13
1.98977e-13
1.70265e-13
1.45697e-13
1.24682e-13
1.06708e-13
9.13317e-14
7.81699e-14
6.68917e-14
5.72143e-14
4.88974e-14
4.17375e-14
3.55626e-14
3.02274e-14
2.56113e-14
2.16192e-14
1.81843e-14
1.52697e-14
1.28652e-14
1.09753e-14
9.59853e-15
8.70053e-15
8.18936e-15
7.90366e-15
7.62314e-15
7.10565e-15
6.14671e-15
4.64712e-15
2.66769e-15
4.48902e-16
-1.62e-15
-3.08437e-15
-3.54457e-15
-2.78315e-15
-8.60718e-16
1.85393e-15
4.73834e-15
7.05119e-15
8.11774e-15
7.51784e-15
5.22264e-15
1.63628e-15
-2.47682e-15
-6.1672e-15
-8.53562e-15
-8.96718e-15
-7.30018e-15
-3.88203e-15
5.06035e-16
4.83768e-15
8.09502e-15
9.52059e-15
8.80204e-15
6.14235e-15
2.19963e-15
-2.08497e-15
-5.72372e-15
-7.9212e-15
-8.25509e-15
-6.75687e-15
-3.87774e-15
-3.55418e-16
2.97865e-15
5.40023e-15
6.45165e-15
6.02453e-15
4.3527e-15
1.92549e-15
-6.49903e-16
-2.79901e-15
-4.10648e-15
-4.39124e-15
-3.71892e-15
-2.35619e-15
-6.85285e-16
8.96439e-16
2.06649e-15
2.63768e-15
2.57937e-15
2.00052e-15
1.10429e-15
1.28899e-16
-7.09746e-16
-1.26093e-15
-1.46049e-15
-1.32944e-15
-9.54386e-16
-4.57099e-16
3.78571e-17
4.30047e-16
6.59745e-16
7.12544e-16
6.13367e-16
4.13291e-16
1.73508e-16
-4.95208e-17
-2.14779e-16
-3.01856e-16
-3.1066e-16
-2.56938e-16
-1.65487e-16
-6.30253e-17
2.77051e-17
9.16371e-17
1.22623e-16
1.22547e-16
9.89973e-17
6.23468e-17
2.29772e-17
-1.08016e-17
-3.3888e-17
-4.45844e-17
-4.40563e-17
-3.53532e-17
-2.23095e-17
-8.57865e-18
3.03694e-18
1.09058e-17
1.45662e-17
1.44939e-17
1.17479e-17
7.60092e-18
3.23168e-18
-4.76177e-19
-3.0199e-18
-4.26392e-18
-4.35847e-18
-3.6265e-18
-2.4506e-18
-1.18208e-18
-8.34737e-20
6.94388e-19
1.10684e-18
1.19113e-18
1.03399e-18
7.39843e-19
4.05622e-19
1.04945e-19
-1.18238e-19
-2.48351e-19
-2.91948e-19
-2.69315e-19
-2.06225e-19
-1.27362e-19
-5.21222e-20
7.21259e-21
4.53549e-20
6.26347e-20
6.30413e-20
5.22509e-20
3.60142e-20
1.90836e-20
4.69346e-21
-5.49991e-21
-1.11681e-20
-1.29045e-20
-1.17928e-20
-9.03831e-21
-5.70831e-21
-2.59004e-21
-1.50389e-22
1.43189e-21
2.19366e-21
2.30235e-21
1.97849e-21
1.43715e-21
8.51951e-22
3.39744e-22
-3.88113e-23
-2.68931e-22
-3.67085e-22
-3.66341e-22
-3.04305e-22
-2.14842e-22
-1.23605e-22
-4.67232e-23
8.33461e-24
4.07131e-23
5.37564e-23
5.27992e-23
4.34722e-23
3.06193e-23
1.77762e-23
7.08149e-24
-5.35523e-25
-5.03293e-24
-6.90964e-24
-6.90436e-24
-5.77415e-24
-4.15899e-24
-2.52102e-24
-1.13875e-24
-1.3488e-25
4.80702e-25
7.66432e-25
8.11232e-25
7.07113e-25
5.32567e-25
3.45114e-25
1.80477e-25
5.57468e-26
-2.5653e-26
-6.8798e-26
-8.28534e-26
-7.78417e-26
-6.26357e-26
-4.39928e-26
-2.63502e-26
-1.20908e-26
-2.03369e-27
4.02839e-27
6.85379e-27
7.39171e-27
6.54619e-27
5.0499e-27
3.42065e-27
1.97176e-27
8.51148e-28
9.0076e-29
-3.50655e-28
-5.43444e-28
-5.6773e-28
-4.94263e-28
-3.77742e-28
-2.55295e-28
-1.48438e-28
-6.66594e-29
-1.13032e-29
2.09866e-29
3.56295e-29
3.83309e-29
3.40631e-29
2.66226e-29
1.85728e-29
1.14067e-29
5.80319e-30
1.89332e-30
-5.09365e-31
-1.73479e-30
-2.13987e-30
-2.04144e-30
-1.68635e-30
-1.24611e-30
-8.25655e-31
-4.78303e-31
-2.21635e-31
-5.14805e-32
4.73083e-32
9.34417e-32
1.0471e-31
9.57456e-32
7.73109e-32
5.65129e-32
3.74645e-32
2.20858e-32
1.08555e-32
3.42185e-33
-9.51315e-34
-3.09424e-33
-3.76461e-33
-3.57128e-33
-2.95655e-33
-2.2114e-33
-1.50578e-33
-9.22085e-34
-4.85407e-34
-1.87536e-34
-4.25895e-36
9.33872e-35
1.32628e-34
1.3587e-34
1.19813e-34
9.58308e-35
7.09278e-35
4.88659e-35
3.12058e-35
1.81556e-35
9.19814e-36
3.51521e-36
2.46782e-37
-1.3706e-36
-1.94666e-36
-1.92966e-36
-1.62492e-36
-1.22391e-36
-8.3471e-37
-5.08876e-37
-2.62701e-37
-9.27446e-38
1.36935e-38
7.20866e-38
9.70791e-38
1.00823e-37
9.25086e-38
7.85465e-38
6.30536e-38
4.84136e-38
3.58e-38
2.56046e-38
1.77617e-38
1.19733e-38
7.85568e-39
5.02495e-39
3.14196e-39
1.92956e-39
1.17412e-39
7.18695e-40
4.52833e-40
3.01895e-40
2.17494e-40
1.69618e-40
1.40571e-40
1.20547e-40
1.04546e-40
9.03254e-41
7.7103e-41
6.47758e-41
5.34876e-41
4.34093e-41
3.46477e-41
2.72216e-41
2.10729e-41
1.60889e-41
1.21259e-41
9.02909e-42
6.64735e-42
4.84196e-42
3.49162e-42
2.49405e-42
1.76551e-42
1.23913e-42
8.6261e-43
5.95834e-43
4.08499e-43
2.78062e-43
1.87974e-43
1.26232e-43
8.42273e-44
5.58527e-44
3.68152e-44
2.41257e-44
1.57209e-44
1.0188e-44
6.56712e-45
4.2111e-45
2.68663e-45
1.70554e-45
1.07748e-45
6.77475e-46
4.23993e-46
2.64148e-46
1.63831e-46
1.01168e-46
6.22051e-47
3.80867e-47
2.32231e-47
1.41024e-47
8.52949e-48
5.13851e-48
3.08363e-48
1.84341e-48
1.09785e-48
6.51393e-49
3.85079e-49
2.2682e-49
1.33125e-49
7.78582e-50
4.53767e-50
2.63551e-50
1.52552e-50
8.8005e-51
5.06001e-51
2.89978e-51
1.65639e-51
9.4311e-52
5.35273e-52
3.02842e-52
1.70805e-52
9.60369e-53
5.38324e-53
3.00836e-53
1.67613e-53
9.31083e-54
5.15686e-54
2.84779e-54
1.56808e-54
8.60942e-55
4.71344e-55
2.57318e-55
1.40081e-55
7.60457e-56
4.11687e-56
2.22261e-56
1.19667e-56
6.42551e-57
3.44089e-57
1.8377e-57
9.7887e-58
5.20032e-58
2.75549e-58
1.45625e-58
7.67632e-59
4.03603e-59
2.11664e-59
1.10724e-59
5.77748e-60
3.00711e-60
1.56127e-60
8.08601e-61
4.17755e-61
2.15302e-61
1.10692e-61
5.67723e-62
2.90478e-62
1.48269e-62
7.55015e-63
3.8356e-63
1.94397e-63
9.82949e-64
4.95862e-64
2.49566e-64
1.25317e-64
6.27825e-65
3.13817e-65
1.56506e-65
7.78757e-66
3.86632e-66
1.91524e-66
9.46633e-67
4.6685e-67
2.29729e-67
1.12798e-67
5.52635e-68
2.70166e-68
1.3179e-68
6.41501e-69
3.11588e-69
1.5102e-69
7.3041e-70
3.52515e-70
1.69774e-70
8.15933e-71
3.91317e-71
1.87282e-71
8.94468e-72
4.26319e-72
2.02773e-72
9.62492e-73
4.55928e-73
2.15532e-73
1.01683e-73
4.78747e-74
2.24953e-74
1.05489e-74
4.93693e-75
2.30591e-75
1.0749e-75
5.00078e-76
2.32195e-76
1.07601e-76
4.97659e-77
2.29723e-77
1.05836e-77
4.86658e-78
2.23346e-78
1.02306e-78
4.67727e-79
2.13431e-79
9.72068e-80
4.41891e-80
2.005e-80
9.08024e-81
4.10456e-81
1.85193e-81
8.34019e-82
3.74905e-82
1.68214e-82
7.53362e-83
3.36781e-83
1.50278e-83
6.69345e-84
2.97587e-84
1.32066e-84
5.85035e-85
2.58696e-85
1.14187e-85
5.03112e-86
2.21277e-86
9.71484e-87
4.25758e-87
1.8626e-87
8.13413e-88
3.54598e-88
1.54312e-88
6.70353e-89
2.90702e-89
1.25845e-89
5.43841e-90
2.34615e-90
1.01039e-90
4.34385e-91
1.8643e-91
7.98754e-92
3.4164e-92
1.45876e-92
6.2182e-93
2.64611e-93
1.12413e-93
4.76757e-94
2.01858e-94
8.53234e-95
3.60051e-95
1.51683e-95
6.37951e-96
2.67866e-96
1.12287e-96
4.69922e-97
1.96339e-97
8.18985e-98
3.41062e-98
1.41802e-98
5.88605e-99
2.43927e-99
1.00923e-99
4.16891e-100
1.7193e-100
7.07918e-101
2.91016e-101
1.19442e-101
4.89442e-102
2.00242e-102
8.17932e-103
3.33574e-103
1.35825e-103
5.52181e-104
2.2413e-104
9.08314e-105
3.67529e-105
1.4848e-105
5.98918e-106
2.41207e-106
9.69928e-107
3.89418e-107
1.56106e-107
6.24821e-108
2.49702e-108
9.96375e-109
3.9697e-109
1.57917e-109
6.27245e-110
2.48763e-110
9.85085e-111
3.89497e-111
1.53772e-111
6.06173e-112
2.38595e-112
9.37722e-113
3.6799e-113
1.44194e-113
5.64173e-114
2.20409e-114
8.59809e-115
3.34911e-115
1.30261e-115
5.05893e-116
1.96184e-116
7.59675e-117
2.93735e-117
1.13409e-117
4.37224e-118
1.68317e-118
6.47021e-119
2.48358e-119
9.51939e-120
3.64344e-120
1.39247e-120
5.31417e-121
2.02516e-121
7.70657e-122
2.92847e-122
1.11122e-122
4.21053e-123
1.59315e-123
6.01948e-124
2.27115e-124
8.5569e-125
3.2194e-125
1.20954e-125
4.53788e-126
1.70011e-126
6.3605e-127
2.37628e-127
8.86538e-128
3.30287e-128
1.2288e-128
4.56528e-129
1.69376e-129
6.2753e-130
2.32176e-130
8.5783e-131
3.1651e-131
1.16621e-131
4.29112e-132
1.57678e-132
5.78596e-133
2.12026e-133
7.7591e-134
2.83559e-134
1.03487e-134
3.77173e-135
1.3728e-135
4.98987e-136
1.81128e-136
6.56596e-137
2.37699e-137
8.59361e-138
3.10272e-138
1.11874e-138
4.02844e-139
1.44866e-139
5.20259e-140
1.86594e-140
6.68343e-141
2.39071e-141
8.5405e-142
3.04696e-142
1.08562e-142
3.86297e-143
1.37276e-143
4.87192e-144
1.72678e-144
6.11238e-145
2.16081e-145
7.62885e-146
2.68991e-146
9.47228e-147
3.33127e-147
1.17005e-147
4.10429e-148
1.43785e-148
5.03074e-149
1.7579e-149
6.13477e-150
2.1382e-150
7.44292e-151
2.58753e-151
8.98412e-152
3.1154e-152
1.07895e-152
3.73197e-153
1.28922e-153
4.44803e-154
1.53271e-154
5.27482e-155
1.81305e-155
6.22395e-156
2.13393e-156
7.30717e-157
2.49906e-157
8.53619e-158
2.91213e-158
9.9224e-159
3.37664e-159
1.14766e-159
3.8959e-160
1.32088e-160
4.47285e-161
1.51276e-161
5.11003e-162
1.72402e-162
5.80938e-163
1.95518e-163
6.5722e-164
2.20651e-164
7.39899e-165
2.47805e-165
8.28935e-166
2.76952e-166
9.24191e-167
3.08031e-167
1.02542e-167
3.40947e-168
1.13227e-168
3.75567e-169
1.24425e-169
4.11722e-170
1.36076e-170
4.492e-171
1.48109e-171
4.87757e-172
1.60439e-172
5.27107e-173
1.72971e-173
5.66935e-174
1.85601e-174
6.06893e-175
1.98213e-175
6.46609e-176
2.10688e-176
6.85688e-177
2.22897e-177
7.23725e-178
2.34712e-178
7.60305e-179
2.46e-179
7.95015e-180
2.56632e-180
8.27449e-181
2.66482e-181
8.57219e-182
2.75431e-182
8.83959e-183
2.83367e-183
9.07335e-184
2.90192e-184
9.27051e-185
2.95817e-185
9.42858e-186
3.00173e-186
9.54553e-187
3.03203e-187
9.61991e-188
3.0487e-188
9.65081e-189
3.05155e-189
9.63794e-190
3.04058e-190
9.58158e-191
3.01597e-191
9.48261e-192
2.9781e-192
9.34247e-193
2.9275e-193
9.16313e-194
2.86487e-194
8.94703e-195
2.79105e-195
8.69705e-196
2.70702e-196
8.41644e-197
2.61386e-197
8.10874e-198
2.51271e-198
7.7777e-199
2.4048e-199
7.42724e-200
2.29137e-200
7.06133e-201
2.17369e-201
6.68395e-202
2.05301e-202
6.29901e-203
1.93054e-203
5.9103e-204
1.80745e-204
5.52139e-205
1.68484e-205
5.13563e-206
1.56372e-206
4.75611e-207
1.44502e-207
4.38556e-208
1.32956e-208
4.02643e-209
1.21805e-209
3.68078e-210
1.11109e-210
3.35035e-211
1.00917e-211
3.03651e-212
9.12681e-213
2.7403e-213
8.21891e-214
2.46244e-214
7.36979e-215
2.20334e-215
6.58031e-216
1.96313e-216
5.85049e-217
1.7417e-217
5.17961e-218
1.53872e-218
4.56631e-219
1.35367e-219
4.00869e-220
1.18586e-220
3.50437e-221
1.0345e-221
3.05067e-222
8.9868e-223
2.64461e-223
7.77433e-224
2.28303e-224
6.69742e-225
1.96269e-225
5.7457e-226
1.68029e-226
4.90879e-227
1.43256e-227
4.17642e-228
1.21632e-228
3.53866e-229
1.02845e-229
2.98594e-230
8.66027e-231
2.5092e-231
7.26261e-232
2.09993e-232
6.06557e-233
1.75023e-233
5.04514e-234
1.45281e-234
4.17927e-235
1.20102e-235
3.44792e-236
9.88833e-237
2.83301e-237
8.10834e-238
2.31833e-238
6.62187e-239
1.8895e-239
5.38609e-240
1.53378e-240
4.36328e-241
1.24002e-241
3.5205e-242
9.98494e-243
2.82912e-243
8.00795e-244
2.26442e-244
6.39672e-245
1.8052e-245
5.0893e-246
1.43337e-246
4.03299e-247
1.13361e-247
3.18324e-248
8.92982e-249
2.50257e-249
7.00647e-250
1.95967e-250
5.47567e-251
1.52849e-251
4.26246e-252
1.18749e-252
3.305e-253
9.18939e-254
2.55256e-254
7.08334e-255
1.9637e-255
5.4386e-256
1.50479e-256
4.15947e-257
1.14862e-257
3.16878e-258
8.73344e-259
2.40467e-259
6.61461e-260
1.81774e-260
4.99042e-261
1.36874e-261
3.75048e-262
1.02667e-262
2.80774e-263
7.6712e-264
2.09388e-264
5.7098e-265
1.55551e-265
4.23358e-266
1.15113e-266
3.12699e-267
8.48617e-268
2.30082e-268
6.23213e-269
1.68646e-269
4.55934e-270
1.23144e-270
3.32286e-271
8.95771e-272
2.41251e-272
6.49127e-273
1.74493e-273
4.68614e-274
1.25731e-274
3.37021e-275
9.0253e-276
2.41467e-276
6.45421e-277
1.72353e-277
4.59821e-278
1.2256e-278
3.26363e-279
8.68253e-280
2.30773e-280
6.12797e-281
1.62571e-281
4.30885e-282
1.14097e-282
3.01846e-283
7.97793e-284
2.10664e-284
5.5576e-285
1.46481e-285
3.85719e-286
1.01475e-286
2.66713e-287
7.00372e-288
1.83743e-288
4.81606e-289
1.26117e-289
3.29954e-290
8.62449e-291
2.25224e-291
5.87619e-292
1.53172e-292
3.98899e-293
1.03789e-293
2.69798e-294
7.00696e-295
1.81813e-295
4.71327e-296
1.22074e-296
3.15886e-297
8.16661e-298
2.10939e-298
5.44351e-299
1.40348e-299
3.61525e-300
9.30418e-301
2.39235e-301
6.1458e-302
1.57739e-302
4.0449e-303
1.0363e-303
2.6526e-304
6.78369e-305
1.73329e-305
4.42471e-306
1.12852e-306
2.8757e-307
7.32131e-308
1.86228e-308
4.73275e-309
1.20169e-309
3.0485e-310
7.72663e-311
1.95663e-311
4.95039e-312
1.25136e-312
3.1604e-313
7.97472e-314
2.0105e-314
5.06414e-315
1.27445e-315
3.20448e-316
8.05022e-317
2.02057e-317
5.06708e-318
1.26958e-318
3.17823e-319
7.94952e-320
1.98713e-320
4.96536e-321
1.23516e-321
3.0138e-322
7.41098e-323
9.88131e-324
0
0
0
0
0
0
0
0
0
0
0
0
0
0
0
0
0
0
0
0
0
0
0
0
0
0
0
0
0
0
0
0
0
0
0
0
0
0
0
0
0
0
0
0
0
0
0
0
0
0
0
0
0
0
0
0
0
0
0
0
0
0
0
0
0
0
0
0
0
0
0
0
0
0
0
0
0
0
0
0
0
0
0
0
0
0
0
0
0
0
0
0
0
0
0
0
0
0
0
0
0
0
0
0
0
0
0
0
0
0
0
0
0
0
0
0
0
0
0
0
0
0
0
0
0
0
0
0
0
0
0
0
0
0
0
0
0
0
0
0
0
0
0
0
0
0
0
0
0
0
0
0
0
0
0
0
0
0
0
0
0
0
0
0
0
0
0
0
0
0
0
0
0
0
0
0
0
0
0
0
0
0
0
0
0
0
0
0
0
0
0
0
0
0
0
0
0
0
0
0
0
0
0
0
0
0
0
0
0
0
0
0
0
0
0
0
0
0
0
0
0
0
0
0