# vtk DataFile Version 2.0
FlowField
ASCII
DATASET STRUCTURED_GRID
DIMENSIONS 1602 1 52
POINTS 83304 float
0 0 0
0.1 0 0
0.2 0 0
0.3 0 0
0.4 0 0
0.5 0 0
0.6 0 0
0.7 0 0
0.8 0 0
0.9 0 0
1 0 0
1.1 0 0
1.2 0 0
1.3 0 0
1.4 0 0
1.5 0 0
1.6 0 0
1.7 0 0
1.8 0 0
1.9 0 0
2 0 0
2.1 0 0
2.2 0 0
2.3 0 0
2.4 0 0
2.5 0 0
2.6 0 0
2.7 0 0
2.8 0 0
2.9 0 0
3 0 0
3.1 0 0
3.2 0 0
3.3 0 0
3.4 0 0
3.5 0 0
3.6 0 0
3.7 0 0
3.8 0 0
3.9 0 0
4 0 0
4.1 0 0
4.2 0 0
4.3 0 0
4.4 0 0
4.5 0 0
4.6 0 0
4.7 0 0
4.8 0 0
4.9 0 0
5 0 0
5.1 0 0
5.2 0 0
5.3 0 0
5.4 0 0
5.5 0 0
5.6 0 0
5.7 0 0
5.8 0 0
5.9 0 0
6 0 0
6.1 0 0
6.2 0 0
6.3 0 0
6.4 0 0
6.5 0 0
6.6 0 0
6.7 0 0
6.8 0 0
6.9 0 0
7 0 0
7.1 0 0
7.2 0 0
7.3 0 0
7.4 0 0
7.5 0 0
7.6 0 0
7.7 0 0
7.8 0 0
7.9 0 0
8 0 0
8.1 0 0
8.2 0 0
8.3 0 0
8.4 0 0
8.5 0 0
8.6 0 0
8.7 0 0
8.8 0 0
8.9 0 0
9 0 0
9.1 0 0
9.2 0 0
9.3 0 0
9.4 0 0
9.5 0 0
9.6 0 0
9.7 0 0
9.8 0 0
9.9 0 0
10 0 0
10.1 0 0
10.2 0 0
10.3 0 0
10.4 0 0
10.5 0 0
10.6 0 0
10.7 0 0
10.8 0 0
10.9 0 0
11 0 0
11.1 0 0
11.2 0 0
11.3 0 0
11.4 0 0
11.5 0 0
11.6 0 0
11.7 0 0
11.8 0 0
11.9 0 0
12 0 0
12.1 0 0
12.2 0 0
12.3 0 0
12.4 0 0
12.5 0 0
12.6 0 0
12.7 0 0
12.8 0 0
12.9 0 0
13 0 0
13.1 0 0
13.2 0 0
13.3 0 0
13.4 0 0
13.5 0 0
13.6 0 0
13.7 0 0
13.8 0 0
13.9 0 0
14 0 0
14.1 0 0
14.2 0 0
14.3 0 0
14.4 0 0
14.5 0 0
14.6 0 0
14.7 0 0
14.8 0 0
14.9 0 0
15 0 0
15.1 0 0
15.2 0 0
15.3 0 0
15.4 0 0
15.5 0 0
15.6 0 0
15.7 0 0
15.8 0 0
15.9 0 0
16 0 0
16.1 0 0
16.2 0 0
16.3 0 0
16.4 0 0
16.5 0 0
16.6 0 0
16.7 0 0
16.8 0 0
16.9 0 0
17 0 0
17.1 0 0
17.2 0 0
17.3 0 0
17.4 0 0
17.5 0 0
17.6 0 0
17.7 0 0
17.8 0 0
17.9 0 0
18 0 0
18.1 0 0
18.2 0 0
18.3 0 0
18.4 0 0
18.5 0 0
18.6 0 0
18.7 0 0
18.8 0 0
18.9 0 0
19 0 0
19.1 0 0
19.2 0 0
19.3 0 0
19.4 0 0
19.5 0 0
19.6 0 0
19.7 0 0
19.8 0 0
19.9 0 0
20 0 0
20.1 0 0
20.2 0 0
20.3 0 0
20.4 0 0
20.5 0 0
20.6 0 0
20.7 0 0
20.8 0 0
20.9 0 0
21 0 0
21.1 0 0
21.2 0 0
21.3 0 0
21.4 0 0
21.5 0 0
21.6 0 0
21.7 0 0
21.8 0 0
21.9 0 0
22 0 0
22.1 0 0
22.2 0 0
22.3 0 0
22.4 0 0
22.5 0 0
22.6 0 0
22.7 0 0
22.8 0 0
22.9 0 0
23 0 0
23.1 0 0
23.2 0 0
23.3 0 0
23.4 0 0
23.5 0 0
23.6 0 0
23.7 0 0
23.8 0 0
23.9 0 0
24 0 0
24.1 0 0
24.2 0 0
24.3 0 0
24.4 0 0
24.5 0 0
24.6 0 0
24.7 0 0
24.8 0 0
24.9 0 0
25 0 0
25.1 0 0
25.2 0 0
25.3 0 0
25.4 0 0
25.5 0 0
25.6 0 0
25.7 0 0
25.8 0 0
25.9 0 0
26 0 0
26.1 0 0
26.2 0 0
26.3 0 0
26.4 0 0
26.5 0 0
26.6 0 0
26.7 0 0
26.8 0 0
26.9 0 0
27 0 0
27.1 0 0
27.2 0 0
27.3 0 0
27.4 0 0
27.5 0 0
27.6 0 0
27.7 0 0
27.8 0 0
27.9 0 0
28 0 0
28.1 0 0
28.2 0 0
28.3 0 0
28.4 0 0
28.5 0 0
28.6 0 0
28.7 0 0
28.8 0 0
28.9 0 0
29 0 0
29.1 0 0
29.2 0 0
29.3 0 0
29.4 0 0
29.5 0 0
29.6 0 0
29.7 0 0
29.8 0 0
29.9 0 0
30 0 0
30.1 0 0
30.2 0 0
30.3 0 0
30.4 0 0
30.5 0 0
30.6 0 0
30.7 0 0
30.8 0 0
30.9 0 0
31 0 0
31.1 0 0
31.2 0 0
31.3 0 0
31.4 0 0
31.5 0 0
31.6 0 0
31.7 0 0
31.8 0 0
31.9 0 0
32 0 0
32.1 0 0
32.2 0 0
32.3 0 0
32.4 0 0
32.5 0 0
32.6 0 0
32.7 0 0
32.8 0 0
32.9 0 0
33 0 0
33.1 0 0
33.2 0 0
33.3 0 0
33.4 0 0
33.5 0 0
33.6 0 0
33.7 0 0
33.8 0 0
33.9 0 0
34 0 0
34.1 0 0
34.2 0 0
34.3 0 0
34.4 0 0
34.5 0 0
34.6 0 0
34.7 0 0
34.8 0 0
34.9 0 0
35 0 0
35.1 0 0
35.2 0 0
35.3 0 0
35.4 0 0
35.5 0 0
35.6 0 0
35.7 0 0
35.8 0 0
35.9 0 0
36 0 0
36.1 0 0
36.2 0 0
36.3 0 0
36.4 0 0
36.5 0 0
36.6 0 0
36.7 0 0
36.8 0 0
36.9 0 0
37 0 0
37.1 0 0
37.2 0 0
37.3 0 0
37.4 0 0
37.5 0 0
37.6 0 0
37.7 0 0
37.8 0 0
37.9 0 0
38 0 0
38.1 0 0
38.2 0 0
38.3 0 0
38.4 0 0
38.5 0 0
38.6 0 0
38.7 0 0
38.8 0 0
38.9 0 0
39 0 0
39.1 0 0
39.2 0 0
39.3 0 0
39.4 0 0
39.5 0 0
39.6 0 0
39.7 0 0
39.8 0 0
39.9 0 0
40 0 0
40.1 0 0
40.2 0 0
40.3 0 0
40.4 0 0
40.5 0 0
40.6 0 0
40.7 0 0
40.8 0 0
40.9 0 0
41 0 0
41.1 0 0
41.2 0 0
41.3 0 0
41.4 0 0
41.5 0 0
41.6 0 0
41.7 0 0
41.8 0 0
41.9 0 0
42 0 0
42.1 0 0
42.2 0 0
42.3 0 0
42.4 0 0
42.5 0 0
42.6 0 0
42.7 0 0
42.8 0 0
42.9 0 0
43 0 0
43.1 0 0
43.2 0 0
43.3 0 0
43.4 0 0
43.5 0 0
43.6 0 0
43.7 0 0
43.8 0 0
43.9 0 0
44 0 0
44.1 0 0
44.2 0 0
44.3 0 0
44.4 0 0
44.5 0 0
44.6 0 0
44.7 0 0
44.8 0 0
44.9 0 0
45 0 0
45.1 0 0
45.2 0 0
45.3 0 0
45.4 0 0
45.5 0 0
45.6 0 0
45.7 0 0
45.8 0 0
45.9 0 0
46 0 0
46.1 0 0
46.2 0 0
46.3 0 0
46.4 0 0
46.5 0 0
46.6 0 0
46.7 0 0
46.8 0 0
46.9 0 0
47 0 0
47.1 0 0
47.2 0 0
47.3 0 0
47.4 0 0
47.5 0 0
47.6 0 0
47.7 0 0
47.8 0 0
47.9 0 0
48 0 0
48.1 0 0
48.2 0 0
48.3 0 0
48.4 0 0
48.5 0 0
48.6 0 0
48.7 0 0
48.8 0 0
48.9 0 0
49 0 0
49.1 0 0
49.2 0 0
49.3 0 0
49.4 0 0
49.5 0 0
49.6 0 0
49.7 0 0
49.8 0 0
49.9 0 0
50 0 0
50.1 0 0
50.2 0 0
50.3 0 0
50.4 0 0
50.5 0 0
50.6 0 0
50.7 0 0
50.8 0 0
50.9 0 0
51 0 0
51.1 0 0
51.2 0 0
51.3 0 0
51.4 0 0
51.5 0 0
51.6 0 0
51.7 0 0
51.8 0 0
51.9 0 0
52 0 0
52.1 0 0
52.2 0 0
52.3 0 0
52.4 0 0
52.5 0 0
52.6 0 0
52.7 0 0
52.8 0 0
52.9 0 0
53 0 0
53.1 0 0
53.2 0 0
53.3 0 0
53.4 0 0
53.5 0 0
53.6 0 0
53.7 0 0
53.8 0 0
53.9 0 0
54 0 0
54.1 0 0
54.2 0 0
54.3 0 0
54.4 0 0
54.5 0 0
54.6 0 0
54.7 0 0
54.8 0 0
54.9 0 0
55 0 0
55.1 0 0
55.2 0 0
55.3 0 0
55.4 0 0
55.5 0 0
55.6 0 0
55.7 0 0
55.8 0 0
55.9 0 0
56 0 0
56.1 0 0
56.2 0 0
56.3 0 0
56.4 0 0
56.5 0 0
56.6 0 0
56.7 0 0
56.8 0 0
56.9 0 0
57 0 0
57.1 0 0
57.2 0 0
57.3 0 0
57.4 0 0
57.5 0 0
57.6 0 0
57.7 0 0
57.8 0 0
57.9 0 0
58 0 0
58.1 0 0
58.2 0 0
58.3 0 0
58.4 0 0
58.5 0 0
58.6 0 0
58.7 0 0
58.8 0 0
58.9 0 0
59 0 0
59.1 0 0
59.2 0 0
59.3 0 0
59.4 0 0
59.5 0 0
59.6 0 0
59.7 0 0
59.8 0 0
59.9 0 0
60 0 0
60.1 0 0
60.2 0 0
60.3 0 0
60.4 0 0
60.5 0 0
60.6 0 0
60.7 0 0
60.8 0 0
60.9 0 0
61 0 0
61.1 0 0
61.2 0 0
61.3 0 0
61.4 0 0
61.5 0 0
61.6 0 0
61.7 0 0
61.8 0 0
61.9 0 0
62 0 0
62.1 0 0
62.2 0 0
62.3 0 0
62.4 0 0
62.5 0 0
62.6 0 0
62.7 0 0
62.8 0 0
62.9 0 0
63 0 0
63.1 0 0
63.2 0 0
63.3 0 0
63.4 0 0
63.5 0 0
63.6 0 0
63.7 0 0
63.8 0 0
63.9 0 0
64 0 0
64.1 0 0
64.2 0 0
64.3 0 0
64.4 0 0
64.5 0 0
64.6 0 0
64.7 0 0
64.8 0 0
64.9 0 0
65 0 0
65.1 0 0
65.2 0 0
65.3 0 0
65.4 0 0
65.5 0 0
65.6 0 0
65.7 0 0
65.8 0 0
65.9 0 0
66 0 0
66.1 0 0
66.2 0 0
66.3 0 0
66.4 0 0
66.5 0 0
66.6 0 0
66.7 0 0
66.8 0 0
66.9 0 0
67 0 0
67.1 0 0
67.2 0 0
67.3 0 0
67.4 0 0
67.5 0 0
67.6 0 0
67.7 0 0
67.8 0 0
67.9 0 0
68 0 0
68.1 0 0
68.2 0 0
68.3 0 0
68.4 0 0
68.5 0 0
68.6 0 0
68.7 0 0
68.8 0 0
68.9 0 0
69 0 0
69.1 0 0
69.2 0 0
69.3 0 0
69.4 0 0
69.5 0 0
69.6 0 0
69.7 0 0
69.8 0 0
69.9 0 0
70 0 0
70.1 0 0
70.2 0 0
70.3 0 0
70.4 0 0
70.5 0 0
70.6 0 0
70.7 0 0
70.8 0 0
70.9 0 0
71 0 0
71.1 0 0
71.2 0 0
71.3 0 0
71.4 0 0
71.5 0 0
71.6 0 0
71.7 0 0
71.8 0 0
71.9 0 0
72 0 0
72.1 0 0
72.2 0 0
72.3 0 0
72.4 0 0
72.5 0 0
72.6 0 0
72.7 0 0
72.8 0 0
72.9 0 0
73 0 0
73.1 0 0
73.2 0 0
73.3 0 0
73.4 0 0
73.5 0 0
73.6 0 0
73.7 0 0
73.8 0 0
73.9 0 0
74 0 0
74.1 0 0
74.2 0 0
74.3 0 0
74.4 0 0
74.5 0 0
74.6 0 0
74.7 0 0
74.8 0 0
74.9 0 0
75 0 0
75.1 0 0
75.2 0 0
75.3 0 0
75.4 0 0
75.5 0 0
75.6 0 0
75.7 0 0
75.8 0 0
75.9 0 0
76 0 0
76.1 0 0
76.2 0 0
76.3 0 0
76.4 0 0
76.5 0 0
76.6 0 0
76.7 0 0
76.8 0 0
76.9 0 0
77 0 0
77.1 0 0
77.2 0 0
77.3 0 0
77.4 0 0
77.5 0 0
77.6 0 0
77.7 0 0
77.8 0 0
77.9 0 0
78 0 0
78.1 0 0
78.2 0 0
78.3 0 0
78.4 0 0
78.5 0 0
78.6 0 0
78.7 0 0
78.8 0 0
78.9 0 0
79 0 0
79.1 0 0
79.2 0 0
79.3 0 0
79.4 0 0
79.5 0 0
79.6 0 0
79.7 0 0
79.8 0 0
79.9 0 0
80 0 0
80.1 0 0
80.2 0 0
80.3 0 0
80.4 0 0
80.5 0 0
80.6 0 0
80.7 0 0
80.8 0 0
80.9 0 0
81 0 0
81.1 0 0
81.2 0 0
81.3 0 0
81.4 0 0
81.5 0 0
81.6 0 0
81.7 0 0
81.8 0 0
81.9 0 0
82 0 0
82.1 0 0
82.2 0 0
82.3 0 0
82.4 0 0
82.5 0 0
82.6 0 0
82.7 0 0
82.8 0 0
82.9 0 0
83 0 0
83.1 0 0
83.2 0 0
83.3 0 0
83.4 0 0
83.5 0 0
83.6 0 0
83.7 0 0
83.8 0 0
83.9 0 0
84 0 0
84.1 0 0
84.2 0 0
84.3 0 0
84.4 0 0
84.5 0 0
84.6 0 0
84.7 0 0
84.8 0 0
84.9 0 0
85 0 0
85.1 0 0
85.2 0 0
85.3 0 0
85.4 0 0
85.5 0 0
85.6 0 0
85.7 0 0
85.8 0 0
85.9 0 0
86 0 0
86.1 0 0
86.2 0 0
86.3 0 0
86.4 0 0
86.5 0 0
86.6 0 0
86.7 0 0
86.8 0 0
86.9 0 0
87 0 0
87.1 0 0
87.2 0 0
87.3 0 0
87.4 0 0
87.5 0 0
87.6 0 0
87.7 0 0
87.8 0 0
87.9 0 0
88 0 0
88.1 0 0
88.2 0 0
88.3 0 0
88.4 0 0
88.5 0 0
88.6 0 0
88.7 0 0
88.8 0 0
88.9 0 0
89 0 0
89.1 0 0
89.2 0 0
89.3 0 0
89.4 0 0
89.5 0 0
89.6 0 0
89.7 0 0
89.8 0 0
89.9 0 0
90 0 0
90.1 0 0
90.2 0 0
90.3 0 0
90.4 0 0
90.5 0 0
90.6 0 0
90.7 0 0
90.8 0 0
90.9 0 0
91 0 0
91.1 0 0
91.2 0 0
91.3 0 0
91.4 0 0
91.5 0 0
91.6 0 0
91.7 0 0
91.8 0 0
91.9 0 0
92 0 0
92.1 0 0
92.2 0 0
92.3 0 0
92.4 0 0
92.5 0 0
92.6 0 0
92.7 0 0
92.8 0 0
92.9 0 0
93 0 0
93.1 0 0
93.2 0 0
93.3 0 0
93.4 0 0
93.5 0 0
93.6 0 0
93.7 0 0
93.8 0 0
93.9 0 0
94 0 0
94.1 0 0
94.2 0 0
94.3 0 0
94.4 0 0
94.5 0 0
94.6 0 0
94.7 0 0
94.8 0 0
94.9 0 0
95 0 0
95.1 0 0
95.2 0 0
95.3 0 0
95.4 0 0
95.5 0 0
95.6 0 0
95.7 0 0
95.8 0 0
95.9 0 0
96 0 0
96.1 0 0
96.2 0 0
96.3 0 0
96.4 0 0
96.5 0 0
96.6 0 0
96.7 0 0
96.8 0 0
96.9 0 0
97 0 0
97.1 0 0
97.2 0 0
97.3 0 0
97.4 0 0
97.5 0 0
97.6 0 0
97.7 0 0
97.8 0 0
97.9 0 0
98 0 0
98.1 0 0
98.2 0 0
98.3 0 0
98.4 0 0
98.5 0 0
98.6 0 0
98.7 0 0
98.8 0 0
98.9 0 0
99 0 0
99.1 0 0
99.2 0 0
99.3 0 0
99.4 0 0
99.5 0 0
99.6 0 0
99.7 0 0
99.8 0 0
99.9 0 0
100 0 0
100.1 0 0
100.2 0 0
100.3 0 0
100.4 0 0
100.5 0 0
100.6 0 0
100.7 0 0
100.8 0 0
100.9 0 0
101 0 0
101.1 0 0
101.2 0 0
101.3 0 0
101.4 0 0
101.5 0 0
101.6 0 0
101.7 0 0
101.8 0 0
101.9 0 0
102 0 0
102.1 0 0
102.2 0 0
102.3 0 0
102.4 0 0
102.5 0 0
102.6 0 0
102.7 0 0
102.8 0 0
102.9 0 0
103 0 0
103.1 0 0
103.2 0 0
103.3 0 0
103.4 0 0
103.5 0 0
103.6 0 0
103.7 0 0
103.8 0 0
103.9 0 0
104 0 0
104.1 0 0
104.2 0 0
104.3 0 0
104.4 0 0
104.5 0 0
104.6 0 0
104.7 0 0
104.8 0 0
104.9 0 0
105 0 0
105.1 0 0
105.2 0 0
105.3 0 0
105.4 0 0
105.5 0 0
105.6 0 0
105.7 0 0
105.8 0 0
105.9 0 0
106 0 0
106.1 0 0
106.2 0 0
106.3 0 0
106.4 0 0
106.5 0 0
106.6 0 0
106.7 0 0
106.8 0 0
106.9 0 0
107 0 0
107.1 0 0
107.2 0 0
107.3 0 0
107.4 0 0
107.5 0 0
107.6 0 0
107.7 0 0
107.8 0 0
107.9 0 0
108 0 0
108.1 0 0
108.2 0 0
108.3 0 0
108.4 0 0
108.5 0 0
108.6 0 0
108.7 0 0
108.8 0 0
108.9 0 0
109 0 0
109.1 0 0
109.2 0 0
109.3 0 0
109.4 0 0
109.5 0 0
109.6 0 0
109.7 0 0
109.8 0 0
109.9 0 0
110 0 0
110.1 0 0
110.2 0 0
110.3 0 0
110.4 0 0
110.5 0 0
110.6 0 0
110.7 0 0
110.8 0 0
110.9 0 0
111 0 0
111.1 0 0
111.2 0 0
111.3 0 0
111.4 0 0
111.5 0 0
111.6 0 0
111.7 0 0
111.8 0 0
111.9 0 0
112 0 0
[...]
POINT_DATA 83304

SCALARS pressure float 1
LOOKUP_TABLE default
0
0
0
0
0
0
0
0
0
0
0
0
0
0
0
0
0
0
0
0
0
0
0
0
0
0
0
0
0
0
0
0
0
0
0
0
0
0
0
0
0
0
0
0
0
0
0
0
0
0
0
0
0
0
0
0
0
0
0
0
0
0
0
0
0
0
0
0
0
0
0
0
0
0
0
0
0
0
0
0
0
0
0
0
0
0
0
0
0
0
0
0
0
0
0
0
0
0
0
0
0
0
0
0
0
0
0
0
0
0
0
0
0
0
0
0
0
0
0
0
0
0
0
0
0
0
0
0
0
0
0
0
0
0
0
0
0
0
0
0
0
0
0
0
0
0
0
0
0
0
0
0
0
0
0
0
0
0
0
0
0
0
0
0
0
0
0
0
0
0
0
0
0
0
0
0
0
0
0
0
0
0
0
0
0
0
0
0
0
0
0
0
0
0
0
0
0
0
0
0
0
0
0
0
0
0
0
0
0
0
0
0
0
0
0
0
0
0
0
0
0
0
0
0
0
0
0
0
0
0
0
0
0
0
0
0
0
0
0
0
0
0
0
0
0
0
0
0
0
0
0
0
0
0
0
0
0
0
0
0
0
0
0
0
0
0
0
0
0
0
0
0
0
0
0
0
0
0
0
0
0
0
0
0
0
0
0
0
0
0
0
0
0
0
0
0
0
0
0
0
0
0
0
0
0
0
0
0
0
0
0
0
0
0
0
0
0
0
0
0
0
0
0
0
0
0
0
0
0
0
0
0
0
0
0
0
0
0
0
0
0
0
0
0
0
0
0
0
0
0
0
0
0
0
0
0
0
0
0
0
0
0
0
0
0
0
0
0
0
0
0
0
0
0
0
0
0
0
0
0
0
0
0
0
0
0
0
0
0
0
0
0
0
0
0
0
0
0
0
0
0
0
0
0
0
0
0
0
0
0
0
0
0
0
0
0
0
0
0
0
0
0
0
0
0
0
0
0
0
0
0
0
0
0
0
0
0
0
0
0
0
0
0
0
0
0
0
0
0
0
0
0
0
0
0
0
0
0
0
0
0
0
0
0
0
0
0
0
0
0
0
0
0
0
0
0
0
0
0
0
0
0
0
0
0
0
0
0
0
0
0
0
0
0
0
0
0
0
0
0
0
0
0
0
0
0
0
0
0
0
0
0
0
0
0
0
0
0
0
0
0
0
0
0
0
0
0
0
0
0
0
0
0
0
0
0
0
0
0
0
0
0
0
0
0
0
0
0
0
0
0
0
0
0
0
0
0
0
0
0
0
0
0
0
0
0
0
0
0
0
0
0
0
0
0
0
0
0
0
0
0
0
0
0
0
0
0
0
0
0
0
0
0
0
0
0
0
0
0
0
0
0
0
0
0
0
0
0
0
0
0
0
0
0
0
0
0
0
0
0
0
0
0
0
0
0
0
0
0
0
0
0
0
0
0
0
0
0
0
0
0
0
0
0
0
0
0
0
0
0
0
0
0
0
0
0
0
0
0
0
0
0
0
0
0
0
0
0
0
0
0
0
0
0
0
0
0
0
0
0
0
0
0
0
0
0
0
0
0
0
0
0
0
0
0
0
0
0
0
0
0
0
0
0
0
0
0
0
0
0
0
0
0
0
0
0
0
0
0
0
0
0
0
0
0
0
0
0
0
0
0
0
0
0
0
0
0
0
0
0
0
0
0
0
0
0
0
0
0
0
0
0
0
0
0
0
0
0
0
0
0
0
0
0
0
0
0
0
0
0
0
0
0
0
0
0
0
0
0
0
0
0
0
0
0
0
0
0
0
0
0
0
0
0
0
0
0
0
0
0
0
0
0
0
0
0
0
0
0
0
0
0
0
0
0
0
0
0
0
0
0
0
0
0
0
0
0
0
0
0
0
0
0
0
0
0
0
0
0
0
0
0
0
0
0
0
0
0
0
0
0
0
0
0
0
0
0
0
0
0
0
0
0
0
0
0
0
0
0
0
0
0
0
0
0
0
0
0
0
0
0
0
0
0
0
0
0
0
0
0
0
0
0
0
0
0
0
0
0
0
0
0
0
0
0
0
0
0
0
0
0
0
0
0
0
0
0
0
0
0
0
0
0
0
0
0
0
0
0
0
0
0
0
0
0
0
0
0
0
0
0
0
0
0
0
0
0
0
0
0
0
0
0
0
0
0
0
0
0
0
0
0
0
0
0
0
0
0
0
0
0
0
0
0
0
0
0
0
0
0
0
0
0
0
0
0
0
0
0
0
0
0
0
0
0
0
0
0
0
0
0
0
0
0
0
0
0
0
0
0
0
0
0
0
0
0
0
0
0
0
0
0
0
0
0
0
0
0
0
0
0
0
0
0
0
0
0
0
0
0
0
0
0
0
0
0
0
0
0
0
0
0
0
0
0
0
0
0
0
0
0
0
0
0
0
0
0
0
0
0
0
0
0
0
0
0
0
0
0
0
0
0
0
0
0
0
0
0
0
0
0
0
0
0
0
0
0
0
0
0
0
0
0
0
0
0
0
0
0
0
0
0
0
0
0
0
0
0
0
0
0
0
0
0
0
0
0
0
0
0
0
0
0
0
0
0
0
0
0
0
0
0
0
0
0
0
0
0
0
0
0
0
0
0
0
0
0
0
0
0
0
0
0
0
0
0
0
0
0
0
0
0
0
0
0
0
0
0
0
0
0
0
0
0
0
0
0
0
0
0
0
0
0
0
0
0
0
0
0
0
0
0
0
0
0
0
0
0
0
0
0
0
0
0
0
0
0
0
0
0
0
0
0
0
0
0
0
0
0
0
0
0
0
0
0
0
0
0
0
0
0
0
0
0
0
0
0
0
0
0
0
0
0
0
0
0
0
0
0
0
0
0
0
0
0
0
0
0
0
0
0
0
0
0
0
0
0
0
0
0
0
0
0
0
0
0
0
0
0
0
0
0
0
0
0
0
0
0
0
0
0
0
0
0
0
0
0
0
0
0
0
0
0
0
0
0
0
0
0
0
0
0
0
0
0
0
0
0
0
0
0
0
0
0
0
0
0
0
0
0
0
0
0
0
0
0
0
0
0
0
0
0
0
0
0
0
0
0
0
0
0
0
0
0
0
0
0
0
0
0
0
0
0
0
0
0
0
0
0
0
0
0
0
0
0
0
0
0
0
0
0
0
0
0
0
0
0
0
0
0
0
0
0
0
0
0
0
0
0
0
0
0
0
0
0
0
0
0
0
0
0
0
0
0
0
0
0
0
0
0
0
0
0
0
0
0
0
0
0
0
0
0
0
0
0
0
0
0
0
0
0
0
0
0
0
0
0
0
0
0
0
0
0
0
0
0
0
0
0
0
0
0
0
0
0
0
0
0
0
0
0
0
0
0
0
0
0
0
0
0
0
0
0
0
0
0
0
0
0
0
0
0
0
0
0
0
0
0
0
0
0
0
0
0
0
0
0
0
0
0
0
0
0
0
0
0
0
0
0
0
0
0
0
0
0
0
0
0
0
0
0
0
0
0
0
0
0
0
0
0
0
0
0
0
0
0
0
0
0
0
0
0
0
0
0
0
0
0
0
0
0
0
0
0
0
0
0
0
0
0
0
0
0
0
0
0
0
0
0
0
0
0
0
0
0
0
0
0
0
0
0
0
0
0.0776415
0.052903
0.0436505
0.0357426
0.03048
0.0271088
0.0248019
0.023116
0.0218008
0.0207277
0.0198235
0.0190436
0.0183596
0.0177519
0.0172067
0.0167134
0.0162644
0.0158532
0.015475
0.0151254
0.0148012
0.0144994
0.0142175
0.0139534
0.0137053
0.0134716
0.0132508
0.0130419
0.0128436
0.012655
0.0124753
0.0123036
0.0121391
0.0119811
0.0118288
0.0116815
0.0115383
0.0113984
0.0112611
0.0111257
0.0109918
0.0108594
0.0107289
0.0106017
0.0104804
0.0103687
0.0102718
0.0101964
0.0101503
0.010142
0.0101793
0.0102687
0.0104129
0.0106089
0.010846
0.0111034
0.0113486
0.0115363
0.0116085
0.0114974
0.0111286
0.0104298
0.00934255
0.00783386
0.00591074
0.00363807
0.00115189
-0.00133266
-0.00353395
-0.00514026
-0.0058535
-0.00542815
-0.00370119
-0.000608311
0.00382462
0.0094945
0.0162391
0.0238638
0.0321582
0.0409101
0.0499099
0.0589607
0.0678679
0.0764497
0.0845244
0.0918945
0.0983712
0.1038
0.108059
0.111041
0.112661
0.112872
0.111685
0.109171
0.105448
0.100679
0.0950587
0.088805
0.0821447
0.0752967
0.0684568
0.0617866
0.0554096
0.0494121
0.0438479
0.0387441
0.034107
0.0299274
0.0261859
0.0228557
0.0199061
0.0173047
0.0150186
0.0130158
0.011266
0.00974063
0.00841363
0.00726121
0.0062619
0.00539649
0.0046479
0.00400101
0.00344249
0.00296065
0.00254524
0.00218732
0.00187911
0.00161382
0.00138558
0.0011893
0.00102056
0.000875538
0.000750948
0.000643939
0.000552055
0.000473178
0.000405484
0.0003474
0.000297574
0.000254841
0.000218199
0.000186787
0.000159863
0.00013679
0.000117023
0.000100091
8.55904e-05
7.31743e-05
6.25455e-05
5.34484e-05
4.56641e-05
3.90045e-05
3.33082e-05
2.84371e-05
2.42726e-05
2.0713e-05
1.76713e-05
1.50726e-05
1.2853e-05
1.09577e-05
9.33953e-06
7.95853e-06
6.78028e-06
5.7752e-06
4.91782e-06
4.18618e-06
3.56153e-06
3.02805e-06
2.57252e-06
2.18389e-06
1.85274e-06
1.5707e-06
1.3303e-06
1.12506e-06
9.49898e-07
8.0145e-07
6.77987e-07
5.7866e-07
5.02176e-07
4.45401e-07
4.0254e-07
3.65478e-07
3.25444e-07
2.75562e-07
2.13391e-07
1.42389e-07
7.1499e-08
1.27518e-08
-2.25063e-08
-2.75306e-08
-2.88457e-09
4.30701e-08
9.61609e-08
1.40285e-07
1.61953e-07
1.54054e-07
1.17696e-07
6.15992e-08
-6.36567e-10
-5.44907e-08
-8.84494e-08
-9.67882e-08
-8.0526e-08
-4.64772e-08
-4.87841e-09
3.35839e-08
6.04651e-08
7.12969e-08
6.60533e-08
4.84309e-08
2.43304e-08
6.76763e-11
-1.91816e-08
-3.03615e-08
-3.28106e-08
-2.79124e-08
-1.83403e-08
-7.16993e-09
2.89757e-09
1.00437e-08
1.35163e-08
1.3527e-08
1.09583e-08
6.99801e-09
2.80344e-09
-7.36248e-10
-3.11312e-09
-4.19888e-09
-4.1619e-09
-3.34514e-09
-2.14336e-09
-9.06628e-10
1.17011e-10
7.99628e-10
1.12083e-09
1.13706e-09
9.45144e-10
6.49721e-10
3.39995e-10
7.75183e-11
-1.06281e-10
-2.05693e-10
-2.32761e-10
-2.08656e-10
-1.56354e-10
-9.56193e-11
-4.04639e-11
1.34826e-12
2.74056e-11
3.90693e-11
3.97781e-11
3.36123e-11
2.42953e-11
1.46529e-11
6.45394e-12
5.11089e-13
-3.08196e-12
-4.67685e-12
-4.8267e-12
-4.10557e-12
-2.99866e-12
-1.85426e-12
-8.80331e-13
-1.6765e-13
2.7605e-13
4.9185e-13
5.41528e-13
4.87998e-13
3.84066e-13
2.67883e-13
1.62933e-13
8.0567e-14
2.34893e-14
-1.08393e-14
-2.74342e-14
-3.18511e-14
-2.90377e-14
-2.28103e-14
-1.5758e-14
-9.39362e-15
-4.4115e-15
-9.59498e-16
1.12763e-15
2.15377e-15
2.44711e-15
2.29625e-15
1.92328e-15
1.48037e-15
1.05929e-15
7.05947e-16
4.35158e-16
2.43224e-16
1.17284e-16
4.15741e-17
1.09169e-18
-1.66315e-17
-2.0997e-17
-1.85199e-17
-1.33431e-17
-7.84157e-18
-3.18115e-18
2.2805e-19
2.39897e-18
3.54336e-18
3.93407e-18
3.82996e-18
3.44223e-18
2.9257e-18
2.38337e-18
1.87651e-18
1.43598e-18
1.0723e-18
7.83695e-19
5.6186e-19
3.95859e-19
2.74484e-19
1.87532e-19
1.26371e-19
8.40636e-20
5.52418e-20
3.58842e-20
2.30544e-20
1.46565e-20
9.2241e-21
5.74912e-21
3.5499e-21
2.17222e-21
1.31763e-21
7.92495e-22
4.72736e-22
2.79743e-22
1.6425e-22
9.57064e-23
5.53535e-23
3.17826e-23
1.81193e-23
1.02581e-23
5.76796e-24
3.22156e-24
1.78753e-24
9.85442e-25
5.39821e-25
2.93869e-25
1.58997e-25
8.55051e-26
4.57095e-26
2.42923e-26
1.28355e-26
6.74337e-27
3.52283e-27
1.83016e-27
9.45589e-28
4.85912e-28
2.48362e-28
1.26273e-28
6.38649e-29
3.2134e-29
1.60858e-29
8.01162e-30
3.97027e-30
1.95779e-30
9.60675e-31
4.69111e-31
2.27973e-31
1.1026e-31
5.30763e-32
2.54302e-32
1.21278e-32
5.75728e-33
2.72064e-33
1.27986e-33
5.99383e-34
2.79458e-34
1.29722e-34
5.99526e-35
2.75879e-35
1.26403e-35
5.76688e-36
2.61988e-36
1.1852e-36
5.33936e-37
2.39542e-37
1.07025e-37
4.76225e-38
2.11045e-38
9.315e-39
4.09497e-39
1.79303e-39
7.82003e-40
3.3972e-40
1.47007e-40
6.33679e-41
2.72098e-41
1.16391e-41
4.95971e-42
2.10547e-42
8.90448e-43
3.75183e-43
1.57493e-43
6.58681e-44
2.74468e-44
1.13951e-44
4.71378e-45
1.94289e-45
7.97935e-46
3.26537e-46
1.33154e-46
5.41049e-47
2.19075e-47
8.83951e-48
3.55428e-48
1.4242e-48
5.68711e-49
2.2632e-49
8.9758e-50
3.54771e-50
1.39751e-50
5.48661e-51
2.14683e-51
8.37233e-52
3.25428e-52
1.26075e-52
4.86833e-53
1.87374e-53
7.18832e-54
2.74877e-54
1.04773e-54
3.98076e-55
1.50763e-55
5.69171e-56
2.14198e-56
8.03559e-57
3.00508e-57
1.12031e-57
4.16358e-58
1.54259e-58
5.6976e-59
2.09797e-59
7.70151e-60
2.81857e-60
1.0284e-60
3.74097e-61
1.35674e-61
4.90576e-62
1.76855e-62
6.35678e-63
2.27808e-63
8.13986e-64
2.89993e-64
1.03011e-64
3.64851e-65
1.28849e-65
4.53723e-66
1.59311e-66
5.57764e-67
1.9472e-67
6.77847e-68
2.35297e-68
8.14462e-69
2.81124e-69
9.67617e-70
3.32117e-70
1.13675e-70
3.87998e-71
1.32065e-71
4.48278e-72
1.51743e-72
5.12245e-73
1.72448e-73
5.78967e-74
1.93851e-74
6.47303e-75
2.15562e-75
7.15929e-76
2.37138e-76
7.8338e-77
2.58099e-77
8.48097e-78
2.77943e-78
9.08487e-79
2.96169e-79
9.62989e-80
3.12297e-80
1.01014e-80
3.25889e-81
1.04865e-81
3.36567e-82
1.07744e-82
3.44034e-83
1.09572e-83
3.48088e-84
1.103e-84
3.48625e-85
1.09912e-85
3.4565e-86
1.08427e-86
3.39273e-87
1.05896e-87
3.29704e-88
1.02398e-88
3.17237e-89
9.80401e-90
3.02242e-90
9.29478e-91
2.85141e-91
8.72612e-92
2.66394e-92
8.11287e-93
2.46475e-93
7.47002e-94
2.25853e-94
6.8122e-95
2.04979e-95
6.15309e-96
1.84265e-96
5.50507e-97
1.64079e-97
4.87885e-98
1.4473e-98
4.2833e-99
1.26468e-99
3.72537e-100
1.09482e-100
3.21004e-101
9.39005e-102
2.74045e-102
7.97945e-103
2.31806e-103
6.71862e-104
1.94286e-104
5.60544e-105
1.61358e-105
4.63428e-106
1.32798e-106
3.79679e-107
1.08309e-107
3.08271e-108
8.75441e-109
2.48056e-109
7.01297e-110
1.97828e-110
5.56809e-111
1.56373e-111
4.38186e-112
1.22517e-112
3.41805e-113
9.51493e-114
2.64291e-114
7.32502e-115
2.02576e-115
5.59015e-116
1.53927e-116
4.2293e-117
1.15953e-117
3.17219e-118
8.6597e-119
2.35893e-119
6.41204e-120
1.7392e-120
4.70738e-121
1.27141e-121
3.42665e-122
9.21582e-123
2.47333e-123
6.6239e-124
1.77024e-124
4.72108e-125
1.25644e-125
3.33681e-126
8.84339e-127
2.33885e-127
6.17283e-128
1.6258e-128
4.27319e-129
1.12084e-129
2.93386e-130
7.6638e-131
1.99784e-131
5.19741e-132
1.34936e-132
3.49612e-133
9.03985e-134
2.33268e-134
6.0072e-135
1.54387e-135
3.95983e-136
1.0136e-136
2.58934e-137
6.60145e-138
1.67966e-138
4.2652e-139
1.08092e-139
2.7339e-140
6.901e-141
1.73853e-141
4.37115e-142
1.09687e-142
2.747e-143
6.8661e-144
1.71282e-144
4.26446e-145
1.05967e-145
2.62803e-146
6.50498e-147
1.60702e-147
3.96236e-148
9.751e-149
2.39501e-149
5.87123e-150
1.43654e-150
3.50811e-151
8.55062e-152
2.08014e-152
5.05081e-153
1.22406e-153
2.96088e-154
7.1485e-155
1.72261e-155
4.14325e-156
9.94663e-157
2.38338e-157
5.70028e-158
1.36077e-158
3.24236e-159
7.7113e-160
1.83056e-160
4.33743e-161
1.02583e-161
2.42166e-162
5.7062e-163
1.34208e-163
3.15072e-164
7.38317e-165
1.72694e-165
4.03196e-166
9.39638e-167
2.18581e-167
5.0754e-168
1.17636e-168
2.72156e-169
6.28505e-170
1.44882e-170
3.33376e-171
7.65721e-172
1.7556e-172
4.01789e-173
9.17893e-174
2.09319e-174
4.76482e-175
1.08271e-175
2.45584e-176
5.56053e-177
1.25679e-177
2.83554e-178
6.3862e-179
1.43576e-179
3.22221e-180
7.21873e-181
1.61437e-181
3.60401e-182
8.03167e-183
1.78676e-183
3.96797e-184
8.79656e-185
1.94671e-185
4.30066e-186
9.48452e-187
2.08806e-187
4.58903e-188
1.00681e-188
2.20509e-189
4.82122e-190
1.05231e-190
2.29289e-191
4.98745e-192
1.08301e-192
2.34771e-193
5.08063e-194
1.09762e-194
2.36726e-195
5.0969e-196
1.09554e-196
2.35082e-197
5.03588e-198
1.07696e-198
2.29929e-199
4.9007e-200
1.04278e-200
2.21514e-201
4.69769e-202
9.94584e-203
2.1022e-203
4.43594e-204
9.34489e-205
1.96536e-205
4.12659e-206
8.65012e-207
1.81024e-207
3.7821e-208
7.88888e-209
1.6428e-209
3.41538e-210
7.08897e-211
1.46898e-211
3.03906e-212
6.27704e-213
1.29438e-213
2.66479e-214
5.47721e-215
1.12396e-215
2.30271e-216
4.71005e-217
9.61857e-218
1.96108e-218
3.99192e-219
8.11278e-220
1.64612e-220
3.33469e-221
6.74459e-222
1.36195e-222
2.74584e-223
5.52709e-224
1.11078e-224
2.22878e-225
4.46498e-226
8.93066e-227
1.78345e-227
3.55592e-228
7.07877e-229
1.40695e-229
2.79203e-230
5.53193e-231
1.09434e-231
2.16147e-232
4.26252e-233
8.39278e-234
1.64994e-234
3.23857e-235
6.34694e-236
1.24194e-236
2.42641e-237
4.7332e-238
9.21879e-239
1.79276e-239
3.48098e-240
6.74858e-241
1.30634e-241
2.52482e-242
4.87238e-243
9.38828e-244
1.80621e-244
3.46965e-245
6.65489e-246
1.27449e-246
2.43708e-247
4.65311e-248
8.87073e-249
1.68856e-249
3.20936e-250
6.09066e-251
1.15413e-251
2.18369e-252
4.12547e-253
7.78222e-254
1.46583e-254
2.75683e-255
5.17713e-256
9.70774e-257
1.8176e-257
3.39808e-258
6.34338e-259
1.1824e-259
2.2007e-260
4.08991e-261
7.5897e-262
1.40635e-262
2.60208e-263
4.80736e-264
8.86858e-265
1.63366e-265
3.00492e-266
5.51907e-267
1.01219e-267
1.85363e-268
3.38961e-269
6.18932e-270
1.1285e-270
2.05461e-271
3.73531e-272
6.78097e-273
1.22921e-273
2.22502e-274
4.02172e-275
7.25877e-276
1.30824e-276
2.35443e-277
4.23116e-278
7.59291e-279
1.36061e-279
2.43465e-280
4.35029e-281
7.76207e-282
1.38298e-282
2.46058e-283
4.37157e-284
7.75569e-285
1.374e-285
2.43072e-286
4.29406e-287
7.57507e-288
1.33441e-288
2.34737e-289
4.12343e-290
7.2331e-291
1.26701e-291
2.21627e-292
3.8713e-293
6.75276e-294
1.17625e-294
2.04601e-295
3.55393e-296
6.1646e-297
1.06781e-297
1.84706e-298
3.19054e-299
5.50354e-300
9.48023e-301
1.63077e-301
2.80135e-302
4.80551e-303
8.23215e-304
1.40828e-304
2.40582e-305
4.10433e-306
6.99237e-307
1.18963e-307
2.02116e-308
3.42923e-309
5.81029e-310
9.83119e-311
1.6612e-311
2.80314e-312
4.72365e-313
7.94912e-314
1.33589e-314
2.24199e-315
3.75758e-316
6.28918e-317
1.05122e-317
1.75471e-318
2.92507e-319
4.87001e-320
8.0928e-321
1.34386e-321
2.2233e-322
3.45846e-323
0
0
0
0
0
0
0
0
0
0
0
0
0
0
0
0
0
0
0
0
0
0
0
0
0
0
0
0
0
0
0
0
0
0
0
0
0
0
0
0
0
0
0
0
0
0
0
0
0
0
0
0
0
0
0
0
0
0
0
0
0
0
0
0
0
0
0
0
0
0
0
0
0
0
0
0
0
0
0
0
0
0
0
0
0
0
0
0
0
0
0
0
0
0
0
0
0
0
0
0
0
0
0
0
0
0
0
0
0
0
0
0
0
0
0
0
0
0
0
0
0
0
0
0
0
0
0
0
0
0
0
0
0
0
0
0
0
0
0
0
0
0
0
0
0
0
0
0
0
0
0
0
0
0
0
0
0
0
0
0
0
0
0
0
0
0
0
0
0
0
0
0
0
0
0
0
0
0
0
0
0
0
0
0
0
0
0
0
0
0
0
0
0
0
0
0
0
0
0
0
0
0
0
0
0
0
0
0
0
0
0
0
0
0
0
0
0
0
0
0
0
0
0
0
0
0
0
0
0
0
0
0
0
0
0
0
0
0
0
0
0
0
0
0
0
0
0
0
0
0
0
0
0
0
0
0
0
0
0
0
0
0
0
0
0
0
0
0
0
0
0
0
0
0
0
0
0
0
0
0
0
0
0
0
0
0
0
0
0
0
0
0
0
0
0
0
0
0
0
0
0
0
0
0
0
0
0
0
0
0
0
0
0
0
0
0
0
0
0
0
0
0
0
0
0
0
0
0
0
0
0
0
0
0
0
0
0
0
0
0
0
0
0
0
0
0
0
0
0
0
0
0
0
0
0
0
0
0
0
0
0
0
0
0
0
0
0
0
0
0
0
0
0
0
0
0
0
0
0
0
0
0
0
0
0
0
0
0
0
0
0
0
0
0
0
0
0
0
0
0
0
0
0
0
0
0
0
0
0
0
0
0
0
0
0
0
0
0
0
0
0
0
0
0
0
0
0
0
0
0
0
0
0
0
0
0
0
0
0
0
0
0
0
0
0
0
0
0
0
0
0
0
0
0
0
0
0
0
0
0
0
0
0
0
0
0
0
0
0
0
0
0
0
0
0
0
0
0
0
0
0
0
0
0
0
0
0
0
0
0
0
0
0
0
0
0
0
0
0
0
0
0
0
0
0
0
0
0
0
0
0
0
0
0
0
0
0
0
0
0
0
0
0
0
0
0
0
0
0
0
0
0
0
0
0
0
0
0
0
0
0
0
0
0
0
0
0
0
0
0
0
0
0
0
0
0
0
0
0
0
0
0
0
0
0
0
0
0
0
0
0
0
0
0
0
0
0
0
0
0
0
0
0
0
0
0
0
0
0
0
0
0
0
0
0
0
0
0
0
0
0
0
0
0
0
0
0
0
0
0
0
0
0
0
0
0
0
0
0
0
0
0
0
0
0
0
0
0
0
0
0
0
0
0
0
0
0
0
0
0
0
0
0
0
0
0
0
0
0
0
0
0
0
0
0
0
0
0
0
0
0
0
0
0
0
0
0
0
0
0
0
0
0
0
0
0
0
0
0
0
0
0
0
0
0
0
0
0
0
0
0
0
0
0
0
0
0
0
0
0
0
0
0
0
0
0
0
0
0
0
0
0
0
0
0
0
0
0
0
0
0
0
0
0
0
0
0
0
0
0
0
0
0
0
0
0
0
0
0
0
0
0
0
0
0
0
0.062787
0.0345542
0.0299574
0.025277
0.0221391
0.0200069
0.0184495
0.0172639
0.0163155
0.0155312
0.0148652
0.0142884
0.013781
0.0133294
0.0129237
0.0125563
0.0122216
0.011915
0.0116326
0.0113716
0.0111294
0.0109038
0.0106929
0.0104954
0.0103097
0.0101347
0.00996946
0.00981297
0.00966445
0.0095232
0.00938855
0.00925989
0.00913666
0.00901828
0.00890418
0.00879378
0.00868649
0.00858169
0.00847879
0.00837727
0.00827676
0.00817715
0.00807878
0.00798259
0.00789033
0.00780474
0.00772966
0.00767006
0.00763185
0.00762151
0.00764536
0.00770856
0.00781381
0.00795977
0.00813934
0.00833808
0.00853275
0.00869053
0.00876907
0.0087179
0.00848124
0.00800305
0.00723561
0.00614798
0.00473582
0.00303582
0.00113746
-0.000807835
-0.00258997
-0.00396497
-0.00469056
-0.00456031
-0.00342949
-0.00123702
0.00199867
0.0061925
0.0112057
0.0168688
0.0229955
0.0293988
0.0358965
0.0423163
0.0485015
0.0543166
0.0596436
0.0643702
0.0684042
0.0716843
0.0741743
0.0758494
0.0766942
0.0767108
0.0759248
0.0743843
0.0721544
0.0693125
0.0659467
0.0621556
0.0580469
0.0537344
0.0493311
0.0449419
0.040657
0.0365488
0.0326705
0.0290576
0.0257297
0.022694
0.0199477
0.0174809
0.0152787
0.013323
0.011594
0.0100715
0.00873533
0.00756604
0.00654542
0.00565649
0.00488374
0.00421309
0.00363188
0.00312883
0.00269389
0.0023182
0.00199397
0.00171436
0.00147338
0.00126583
0.00108715
0.000933411
0.00080118
0.000687493
0.000589786
0.00050584
0.000433738
0.000371827
0.000318682
0.000273072
0.000233938
0.00020037
0.000171582
0.000146898
0.000125739
0.000107604
9.20652e-05
7.87532e-05
6.73513e-05
5.75875e-05
4.92282e-05
4.20729e-05
3.59494e-05
3.071e-05
2.62281e-05
2.23949e-05
1.91174e-05
1.63156e-05
1.39211e-05
1.18753e-05
1.01277e-05
8.63519e-06
7.36085e-06
6.27312e-06
5.34502e-06
4.5534e-06
3.87825e-06
3.30229e-06
2.81064e-06
2.39067e-06
2.03186e-06
1.72549e-06
1.46427e-06
1.24178e-06
1.05218e-06
8.90145e-07
7.51216e-07
6.32259e-07
5.31724e-07
4.49376e-07
3.85348e-07
3.38792e-07
3.06663e-07
2.83275e-07
2.61062e-07
2.32481e-07
1.92488e-07
1.40628e-07
8.1842e-08
2.54477e-08
-1.75466e-08
-3.79958e-08
-3.18444e-08
-1.88331e-09
4.26288e-08
8.84163e-08
1.21938e-07
1.33232e-07
1.18653e-07
8.16749e-08
3.16118e-08
-1.92503e-08
-5.91607e-08
-7.99802e-08
-7.89876e-08
-5.90384e-08
-2.72171e-08
7.46137e-09
3.65489e-08
5.41627e-08
5.80284e-08
4.94465e-08
3.23721e-08
1.20012e-08
-6.6859e-09
-2.00474e-08
-2.63559e-08
-2.5797e-08
-2.00162e-08
-1.14224e-08
-2.47334e-09
4.88294e-09
9.51479e-09
1.11521e-08
1.02253e-08
7.58957e-09
4.22717e-09
1.00296e-09
-1.48689e-09
-2.96468e-09
-3.43773e-09
-3.11323e-09
-2.29575e-09
-1.29499e-09
-3.60909e-10
3.48401e-10
7.69472e-10
9.15677e-10
8.49414e-10
6.53426e-10
4.07583e-10
1.74129e-10
-8.45396e-12
-1.24678e-10
-1.76961e-10
-1.78791e-10
-1.48166e-10
-1.0252e-10
-5.5629e-11
-1.63644e-11
1.1131e-11
2.64303e-11
3.14817e-11
2.93329e-11
2.31411e-11
1.55505e-11
8.41166e-12
2.76047e-12
-1.04269e-12
-3.10513e-12
-3.79246e-12
-3.55772e-12
-2.82506e-12
-1.92701e-12
-1.08456e-12
-4.15589e-13
4.17973e-14
3.01742e-13
4.05694e-13
4.03438e-13
3.40926e-13
2.54112e-13
1.67235e-13
9.38996e-14
3.95111e-14
4.02555e-15
-1.56016e-14
-2.35643e-14
-2.39995e-14
-2.034e-14
-1.50815e-14
-9.81219e-15
-5.37869e-15
-2.09643e-15
5.12198e-17
1.25348e-15
1.75996e-15
1.81207e-15
1.60843e-15
1.29383e-15
9.62123e-16
6.65888e-16
4.28007e-16
2.52341e-16
1.32226e-16
5.64875e-17
1.32312e-17
-8.09589e-18
-1.58521e-17
-1.60899e-17
-1.28401e-17
-8.55049e-18
-4.53723e-18
-1.37387e-18
8.08216e-19
2.10825e-18
2.71942e-18
2.84922e-18
2.67929e-18
2.3502e-18
1.96055e-18
1.57297e-18
1.22254e-18
9.25029e-19
6.83828e-19
4.95228e-19
3.52075e-19
2.46125e-19
1.69416e-19
1.14952e-19
7.6957e-20
5.08741e-20
3.32323e-20
2.14635e-20
1.37134e-20
8.67159e-21
5.42923e-21
3.36688e-21
2.06877e-21
1.25987e-21
7.60658e-22
4.5542e-22
2.70456e-22
1.59345e-22
9.31585e-23
5.40544e-23
3.11343e-23
1.7804e-23
1.01095e-23
5.70092e-24
3.19312e-24
1.77663e-24
9.82073e-25
5.39392e-25
2.94392e-25
1.59681e-25
8.60852e-26
4.61309e-26
2.45744e-26
1.30148e-26
6.85317e-27
3.58823e-27
1.86824e-27
9.67354e-28
4.98155e-28
2.55152e-28
1.29993e-28
6.58796e-29
3.32139e-29
1.66591e-29
8.31323e-30
4.12761e-30
2.0392e-30
1.00248e-30
4.90424e-31
2.38761e-31
1.15684e-31
5.5785e-32
2.67744e-32
1.27908e-32
6.0823e-33
2.87904e-33
1.35662e-33
6.36369e-34
2.97182e-34
1.38169e-34
6.39577e-35
2.94769e-35
1.35267e-35
6.18071e-36
2.81213e-36
1.27408e-36
5.74824e-37
2.58264e-37
1.15558e-37
5.1493e-38
2.28522e-38
1.01006e-38
4.44653e-39
1.94966e-39
8.51479e-40
3.70404e-40
1.60501e-40
6.92766e-41
2.97863e-41
1.27578e-41
5.4435e-42
2.31382e-42
9.79812e-43
4.13358e-43
1.73736e-43
7.27517e-44
3.03525e-44
1.2617e-44
5.22554e-45
2.15642e-45
8.86687e-46
3.63287e-46
1.48314e-46
6.03354e-47
2.44586e-47
9.8802e-48
3.97726e-48
1.59549e-48
6.37829e-49
2.54109e-49
1.00891e-49
3.99213e-50
1.5743e-50
6.18737e-51
2.42364e-51
9.46195e-52
3.68172e-52
1.42786e-52
5.51937e-53
2.12653e-53