# vtk DataFile Version 2.0
FlowField
ASCII
DATASET STRUCTURED_GRID
DIMENSIONS 1602 1 52
POINTS 83304 float
0 0 0
0.1 0 0
0.2 0 0
0.3 0 0
0.4 0 0
0.5 0 0
0.6 0 0
0.7 0 0
0.8 0 0
0.9 0 0
1 0 0
1.1 0 0
1.2 0 0
1.3 0 0
1.4 0 0
1.5 0 0
1.6 0 0
1.7 0 0
1.8 0 0
1.9 0 0
2 0 0
2.1 0 0
2.2 0 0
2.3 0 0
2.4 0 0
2.5 0 0
2.6 0 0
2.7 0 0
2.8 0 0
2.9 0 0
3 0 0
3.1 0 0
3.2 0 0
3.3 0 0
3.4 0 0
3.5 0 0
3.6 0 0
3.7 0 0
3.8 0 0
3.9 0 0
4 0 0
4.1 0 0
4.2 0 0
4.3 0 0
4.4 0 0
4.5 0 0
4.6 0 0
4.7 0 0
4.8 0 0
4.9 0 0
5 0 0
5.1 0 0
5.2 0 0
5.3 0 0
5.4 0 0
5.5 0 0
5.6 0 0
5.7 0 0
5.8 0 0
5.9 0 0
6 0 0
6.1 0 0
6.2 0 0
6.3 0 0
6.4 0 0
6.5 0 0
6.6 0 0
6.7 0 0
6.8 0 0
6.9 0 0
7 0 0
7.1 0 0
7.2 0 0
7.3 0 0
7.4 0 0
7.5 0 0
7.6 0 0
7.7 0 0
7.8 0 0
7.9 0 0
8 0 0
8.1 0 0
8.2 0 0
8.3 0 0
8.4 0 0
8.5 0 0
8.6 0 0
8.7 0 0
8.8 0 0
8.9 0 0
9 0 0
9.1 0 0
9.2 0 0
9.3 0 0
9.4 0 0
9.5 0 0
9.6 0 0
9.7 0 0
9.8 0 0
9.9 0 0
10 0 0
10.1 0 0
10.2 0 0
10.3 0 0
10.4 0 0
10.5 0 0
10.6 0 0
10.7 0 0
10.8 0 0
10.9 0 0
11 0 0
11.1 0 0
11.2 0 0
11.3 0 0
11.4 0 0
11.5 0 0
11.6 0 0
11.7 0 0
11.8 0 0
11.9 0 0
12 0 0
12.1 0 0
12.2 0 0
12.3 0 0
12.4 0 0
12.5 0 0
12.6 0 0
12.7 0 0
12.8 0 0
12.9 0 0
13 0 0
13.1 0 0
13.2 0 0
13.3 0 0
13.4 0 0
13.5 0 0
13.6 0 0
13.7 0 0
13.8 0 0
13.9 0 0
14 0 0
14.1 0 0
14.2 0 0
14.3 0 0
14.4 0 0
14.5 0 0
14.6 0 0
14.7 0 0
14.8 0 0
14.9 0 0
15 0 0
15.1 0 0
15.2 0 0
15.3 0 0
15.4 0 0
15.5 0 0
15.6 0 0
15.7 0 0
15.8 0 0
15.9 0 0
16 0 0
16.1 0 0
16.2 0 0
16.3 0 0
16.4 0 0
16.5 0 0
16.6 0 0
16.7 0 0
16.8 0 0
16.9 0 0
17 0 0
17.1 0 0
17.2 0 0
17.3 0 0
17.4 0 0
17.5 0 0
17.6 0 0
17.7 0 0
17.8 0 0
17.9 0 0
18 0 0
18.1 0 0
18.2 0 0
18.3 0 0
18.4 0 0
18.5 0 0
18.6 0 0
18.7 0 0
18.8 0 0
18.9 0 0
19 0 0
19.1 0 0
19.2 0 0
19.3 0 0
19.4 0 0
19.5 0 0
19.6 0 0
19.7 0 0
19.8 0 0
19.9 0 0
20 0 0
20.1 0 0
20.2 0 0
20.3 0 0
20.4 0 0
20.5 0 0
20.6 0 0
20.7 0 0
20.8 0 0
20.9 0 0
21 0 0
21.1 0 0
21.2 0 0
21.3 0 0
21.4 0 0
21.5 0 0
21.6 0 0
21.7 0 0
21.8 0 0
21.9 0 0
22 0 0
22.1 0 0
22.2 0 0
22.3 0 0
22.4 0 0
22.5 0 0
22.6 0 0
22.7 0 0
22.8 0 0
22.9 0 0
23 0 0
23.1 0 0
23.2 0 0
23.3 0 0
23.4 0 0
23.5 0 0
23.6 0 0
23.7 0 0
23.8 0 0
23.9 0 0
24 0 0
24.1 0 0
24.2 0 0
24.3 0 0
24.4 0 0
24.5 0 0
24.6 0 0
24.7 0 0
24.8 0 0
24.9 0 0
25 0 0
25.1 0 0
25.2 0 0
25.3 0 0
25.4 0 0
25.5 0 0
25.6 0 0
25.7 0 0
25.8 0 0
25.9 0 0
26 0 0
26.1 0 0
26.2 0 0
26.3 0 0
26.4 0 0
26.5 0 0
26.6 0 0
26.7 0 0
26.8 0 0
26.9 0 0
27 0 0
27.1 0 0
27.2 0 0
27.3 0 0
27.4 0 0
27.5 0 0
27.6 0 0
27.7 0 0
27.8 0 0
27.9 0 0
28 0 0
28.1 0 0
28.2 0 0
28.3 0 0
28.4 0 0
28.5 0 0
28.6 0 0
28.7 0 0
28.8 0 0
28.9 0 0
29 0 0
29.1 0 0
29.2 0 0
29.3 0 0
29.4 0 0
29.5 0 0
29.6 0 0
29.7 0 0
29.8 0 0
29.9 0 0
30 0 0
30.1 0 0
30.2 0 0
30.3 0 0
30.4 0 0
30.5 0 0
30.6 0 0
30.7 0 0
30.8 0 0
30.9 0 0
31 0 0
31.1 0 0
31.2 0 0
31.3 0 0
31.4 0 0
31.5 0 0
31.6 0 0
31.7 0 0
31.8 0 0
31.9 0 0
32 0 0
32.1 0 0
32.2 0 0
32.3 0 0
32.4 0 0
32.5 0 0
32.6 0 0
32.7 0 0
32.8 0 0
32.9 0 0
33 0 0
33.1 0 0
33.2 0 0
33.3 0 0
33.4 0 0
33.5 0 0
33.6 0 0
33.7 0 0
33.8 0 0
33.9 0 0
34 0 0
34.1 0 0
34.2 0 0
34.3 0 0
34.4 0 0
34.5 0 0
34.6 0 0
34.7 0 0
34.8 0 0
34.9 0 0
35 0 0
35.1 0 0
35.2 0 0
35.3 0 0
35.4 0 0
35.5 0 0
35.6 0 0
35.7 0 0
35.8 0 0
35.9 0 0
36 0 0
36.1 0 0
36.2 0 0
36.3 0 0
36.4 0 0
36.5 0 0
36.6 0 0
36.7 0 0
36.8 0 0
36.9 0 0
37 0 0
37.1 0 0
37.2 0 0
37.3 0 0
37.4 0 0
37.5 0 0
37.6 0 0
37.7 0 0
37.8 0 0
37.9 0 0
38 0 0
38.1 0 0
38.2 0 0
38.3 0 0
38.4 0 0
38.5 0 0
38.6 0 0
38.7 0 0
38.8 0 0
38.9 0 0
39 0 0
39.1 0 0
39.2 0 0
39.3 0 0
39.4 0 0
39.5 0 0
39.6 0 0
39.7 0 0
39.8 0 0
39.9 0 0
40 0 0
40.1 0 0
40.2 0 0
40.3 0 0
40.4 0 0
40.5 0 0
40.6 0 0
40.7 0 0
40.8 0 0
40.9 0 0
41 0 0
41.1 0 0
41.2 0 0
41.3 0 0
41.4 0 0
41.5 0 0
41.6 0 0
41.7 0 0
41.8 0 0
41.9 0 0
42 0 0
42.1 0 0
42.2 0 0
42.3 0 0
42.4 0 0
42.5 0 0
42.6 0 0
42.7 0 0
42.8 0 0
42.9 0 0
43 0 0
43.1 0 0
43.2 0 0
43.3 0 0
43.4 0 0
43.5 0 0
43.6 0 0
43.7 0 0
43.8 0 0
43.9 0 0
44 0 0
44.1 0 0
44.2 0 0
44.3 0 0
44.4 0 0
44.5 0 0
44.6 0 0
44.7 0 0
44.8 0 0
44.9 0 0
45 0 0
45.1 0 0
45.2 0 0
45.3 0 0
45.4 0 0
45.5 0 0
45.6 0 0
45.7 0 0
45.8 0 0
45.9 0 0
46 0 0
46.1 0 0
46.2 0 0
46.3 0 0
46.4 0 0
46.5 0 0
46.6 0 0
46.7 0 0
46.8 0 0
46.9 0 0
47 0 0
47.1 0 0
47.2 0 0
47.3 0 0
47.4 0 0
47.5 0 0
47.6 0 0
47.7 0 0
47.8 0 0
47.9 0 0
48 0 0
48.1 0 0
48.2 0 0
48.3 0 0
48.4 0 0
48.5 0 0
48.6 0 0
48.7 0 0
48.8 0 0
48.9 0 0
49 0 0
49.1 0 0
49.2 0 0
49.3 0 0
49.4 0 0
49.5 0 0
49.6 0 0
49.7 0 0
49.8 0 0
49.9 0 0
50 0 0
50.1 0 0
50.2 0 0
50.3 0 0
50.4 0 0
50.5 0 0
50.6 0 0
50.7 0 0
50.8 0 0
50.9 0 0
51 0 0
51.1 0 0
51.2 0 0
51.3 0 0
51.4 0 0
51.5 0 0
51.6 0 0
51.7 0 0
51.8 0 0
51.9 0 0
52 0 0
52.1 0 0
52.2 0 0
52.3 0 0
52.4 0 0
52.5 0 0
52.6 0 0
52.7 0 0
52.8 0 0
52.9 0 0
53 0 0
53.1 0 0
53.2 0 0
53.3 0 0
53.4 0 0
53.5 0 0
53.6 0 0
53.7 0 0
53.8 0 0
53.9 0 0
54 0 0
54.1 0 0
54.2 0 0
54.3 0 0
54.4 0 0
54.5 0 0
54.6 0 0
54.7 0 0
54.8 0 0
54.9 0 0
55 0 0
55.1 0 0
55.2 0 0
55.3 0 0
55.4 0 0
55.5 0 0
55.6 0 0
55.7 0 0
55.8 0 0
55.9 0 0
56 0 0
56.1 0 0
56.2 0 0
56.3 0 0
56.4 0 0
56.5 0 0
56.6 0 0
56.7 0 0
56.8 0 0
56.9 0 0
57 0 0
57.1 0 0
57.2 0 0
57.3 0 0
57.4 0 0
57.5 0 0
57.6 0 0
57.7 0 0
57.8 0 0
57.9 0 0
58 0 0
58.1 0 0
58.2 0 0
58.3 0 0
58.4 0 0
58.5 0 0
58.6 0 0
58.7 0 0
58.8 0 0
58.9 0 0
59 0 0
59.1 0 0
59.2 0 0
59.3 0 0
59.4 0 0
59.5 0 0
59.6 0 0
59.7 0 0
59.8 0 0
59.9 0 0
60 0 0
60.1 0 0
60.2 0 0
60.3 0 0
60.4 0 0
60.5 0 0
60.6 0 0
60.7 0 0
60.8 0 0
60.9 0 0
61 0 0
61.1 0 0
61.2 0 0
61.3 0 0
61.4 0 0
61.5 0 0
61.6 0 0
61.7 0 0
61.8 0 0
61.9 0 0
62 0 0
62.1 0 0
62.2 0 0
62.3 0 0
62.4 0 0
62.5 0 0
62.6 0 0
62.7 0 0
62.8 0 0
62.9 0 0
63 0 0
63.1 0 0
63.2 0 0
63.3 0 0
63.4 0 0
63.5 0 0
63.6 0 0
63.7 0 0
63.8 0 0
63.9 0 0
64 0 0
64.1 0 0
64.2 0 0
64.3 0 0
64.4 0 0
64.5 0 0
64.6 0 0
64.7 0 0
64.8 0 0
64.9 0 0
65 0 0
65.1 0 0
65.2 0 0
65.3 0 0
65.4 0 0
65.5 0 0
65.6 0 0
65.7 0 0
65.8 0 0
65.9 0 0
66 0 0
66.1 0 0
66.2 0 0
66.3 0 0
66.4 0 0
66.5 0 0
66.6 0 0
66.7 0 0
66.8 0 0
66.9 0 0
67 0 0
67.1 0 0
67.2 0 0
67.3 0 0
67.4 0 0
67.5 0 0
67.6 0 0
67.7 0 0
67.8 0 0
67.9 0 0
68 0 0
68.1 0 0
68.2 0 0
68.3 0 0
68.4 0 0
68.5 0 0
68.6 0 0
68.7 0 0
68.8 0 0
68.9 0 0
69 0 0
69.1 0 0
69.2 0 0
69.3 0 0
69.4 0 0
69.5 0 0
69.6 0 0
69.7 0 0
69.8 0 0
69.9 0 0
70 0 0
70.1 0 0
70.2 0 0
70.3 0 0
70.4 0 0
70.5 0 0
70.6 0 0
70.7 0 0
70.8 0 0
70.9 0 0
71 0 0
71.1 0 0
71.2 0 0
71.3 0 0
71.4 0 0
71.5 0 0
71.6 0 0
71.7 0 0
71.8 0 0
71.9 0 0
72 0 0
72.1 0 0
72.2 0 0
72.3 0 0
72.4 0 0
72.5 0 0
72.6 0 0
72.7 0 0
72.8 0 0
72.9 0 0
73 0 0
73.1 0 0
73.2 0 0
73.3 0 0
73.4 0 0
73.5 0 0
73.6 0 0
73.7 0 0
73.8 0 0
73.9 0 0
74 0 0
74.1 0 0
74.2 0 0
74.3 0 0
74.4 0 0
74.5 0 0
74.6 0 0
74.7 0 0
74.8 0 0
74.9 0 0
75 0 0
75.1 0 0
75.2 0 0
75.3 0 0
75.4 0 0
75.5 0 0
75.6 0 0
75.7 0 0
75.8 0 0
75.9 0 0
76 0 0
76.1 0 0
76.2 0 0
76.3 0 0
76.4 0 0
76.5 0 0
76.6 0 0
76.7 0 0
76.8 0 0
76.9 0 0
77 0 0
77.1 0 0
77.2 0 0
77.3 0 0
77.4 0 0
77.5 0 0
77.6 0 0
77.7 0 0
77.8 0 0
77.9 0 0
78 0 0
78.1 0 0
78.2 0 0
78.3 0 0
78.4 0 0
78.5 0 0
78.6 0 0
78.7 0 0
78.8 0 0
78.9 0 0
79 0 0
79.1 0 0
79.2 0 0
79.3 0 0
79.4 0 0
79.5 0 0
79.6 0 0
79.7 0 0
79.8 0 0
79.9 0 0
80 0 0
80.1 0 0
80.2 0 0
80.3 0 0
80.4 0 0
80.5 0 0
80.6 0 0
80.7 0 0
80.8 0 0
80.9 0 0
81 0 0
81.1 0 0
81.2 0 0
81.3 0 0
81.4 0 0
81.5 0 0
81.6 0 0
81.7 0 0
81.8 0 0
81.9 0 0
82 0 0
82.1 0 0
82.2 0 0
82.3 0 0
82.4 0 0
82.5 0 0
82.6 0 0
82.7 0 0
82.8 0 0
82.9 0 0
83 0 0
83.1 0 0
83.2 0 0
83.3 0 0
83.4 0 0
83.5 0 0
83.6 0 0
83.7 0 0
83.8 0 0
83.9 0 0
84 0 0
84.1 0 0
84.2 0 0
84.3 0 0
84.4 0 0
84.5 0 0
84.6 0 0
84.7 0 0
84.8 0 0
84.9 0 0
85 0 0
85.1 0 0
85.2 0 0
85.3 0 0
85.4 0 0
85.5 0 0
85.6 0 0
85.7 0 0
85.8 0 0
85.9 0 0
86 0 0
86.1 0 0
86.2 0 0
86.3 0 0
86.4 0 0
86.5 0 0
86.6 0 0
86.7 0 0
86.8 0 0
86.9 0 0
87 0 0
87.1 0 0
87.2 0 0
87.3 0 0
87.4 0 0
87.5 0 0
87.6 0 0
87.7 0 0
87.8 0 0
87.9 0 0
88 0 0
88.1 0 0
88.2 0 0
88.3 0 0
88.4 0 0
88.5 0 0
88.6 0 0
88.7 0 0
88.8 0 0
88.9 0 0
89 0 0
89.1 0 0
89.2 0 0
89.3 0 0
89.4 0 0
89.5 0 0
89.6 0 0
89.7 0 0
89.8 0 0
89.9 0 0
90 0 0
90.1 0 0
90.2 0 0
90.3 0 0
90.4 0 0
90.5 0 0
90.6 0 0
90.7 0 0
90.8 0 0
90.9 0 0
91 0 0
91.1 0 0
91.2 0 0
91.3 0 0
91.4 0 0
91.5 0 0
91.6 0 0
91.7 0 0
91.8 0 0
91.9 0 0
92 0 0
92.1 0 0
92.2 0 0
92.3 0 0
92.4 0 0
92.5 0 0
92.6 0 0
92.7 0 0
92.8 0 0
92.9 0 0
93 0 0
93.1 0 0
93.2 0 0
93.3 0 0
93.4 0 0
93.5 0 0
93.6 0 0
93.7 0 0
93.8 0 0
93.9 0 0
94 0 0
94.1 0 0
94.2 0 0
94.3 0 0
94.4 0 0
94.5 0 0
94.6 0 0
94.7 0 0
94.8 0 0
94.9 0 0
95 0 0
95.1 0 0
95.2 0 0
95.3 0 0
95.4 0 0
95.5 0 0
95.6 0 0
95.7 0 0
95.8 0 0
95.9 0 0
96 0 0
96.1 0 0
96.2 0 0
96.3 0 0
96.4 0 0
96.5 0 0
96.6 0 0
96.7 0 0
96.8 0 0
96.9 0 0
97 0 0
97.1 0 0
97.2 0 0
97.3 0 0
97.4 0 0
97.5 0 0
97.6 0 0
97.7 0 0
97.8 0 0
97.9 0 0
98 0 0
98.1 0 0
98.2 0 0
98.3 0 0
98.4 0 0
98.5 0 0
98.6 0 0
98.7 0 0
98.8 0 0
98.9 0 0
99 0 0
99.1 0 0
99.2 0 0
99.3 0 0
99.4 0 0
99.5 0 0
99.6 0 0
99.7 0 0
99.8 0 0
99.9 0 0
100 0 0
100.1 0 0
100.2 0 0
100.3 0 0
100.4 0 0
100.5 0 0
100.6 0 0
100.7 0 0
100.8 0 0
100.9 0 0
101 0 0
101.1 0 0
101.2 0 0
101.3 0 0
101.4 0 0
101.5 0 0
101.6 0 0
101.7 0 0
101.8 0 0
101.9 0 0
102 0 0
102.1 0 0
102.2 0 0
102.3 0 0
102.4 0 0
102.5 0 0
102.6 0 0
102.7 0 0
102.8 0 0
102.9 0 0
103 0 0
103.1 0 0
103.2 0 0
103.3 0 0
103.4 0 0
103.5 0 0
103.6 0 0
103.7 0 0
103.8 0 0
103.9 0 0
104 0 0
104.1 0 0
104.2 0 0
104.3 0 0
104.4 0 0
104.5 0 0
104.6 0 0
104.7 0 0
104.8 0 0
104.9 0 0
105 0 0
105.1 0 0
105.2 0 0
105.3 0 0
105.4 0 0
105.5 0 0
105.6 0 0
105.7 0 0
105.8 0 0
105.9 0 0
106 0 0
106.1 0 0
106.2 0 0
106.3 0 0
106.4 0 0
106.5 0 0
106.6 0 0
106.7 0 0
106.8 0 0
106.9 0 0
107 0 0
107.1 0 0
107.2 0 0
107.3 0 0
107.4 0 0
107.5 0 0
107.6 0 0
107.7 0 0
107.8 0 0
107.9 0 0
108 0 0
108.1 0 0
108.2 0 0
108.3 0 0
108.4 0 0
108.5 0 0
108.6 0 0
108.7 0 0
108.8 0 0
108.9 0 0
109 0 0
109.1 0 0
109.2 0 0
109.3 0 0
109.4 0 0
109.5 0 0
109.6 0 0
109.7 0 0
109.8 0 0
109.9 0 0
110 0 0
110.1 0 0
110.2 0 0
110.3 0 0
110.4 0 0
110.5 0 0
110.6 0 0
110.7 0 0
110.8 0 0
110.9 0 0
111 0 0
111.1 0 0
111.2 0 0
111.3 0 0
111.4 0 0
111.5 0 0
111.6 0 0
111.7 0 0
111.8 0 0
111.9 0 0
112 0 0
[...]
POINT_DATA 83304

SCALARS pressure float 1
LOOKUP_TABLE default
0
0
0
0
0
0
0
0
0
0
0
0
0
0
0
0
0
0
0
0
0
0
0
0
0
0
0
0
0
0
0
0
0
0
0
0
0
0
0
0
0
0
0
0
0
0
0
0
0
0
0
0
0
0
0
0
0
0
0
0
0
0
0
0
0
0
0
0
0
0
0
0
0
0
0
0
0
0
0
0
0
0
0
0
0
0
0
0
0
0
0
0
0
0
0
0
0
0
0
0
0
0
0
0
0
0
0
0
0
0
0
0
0
0
0
0
0
0
0
0
0
0
0
0
0
0
0
0
0
0
0
0
0
0
0
0
0
0
0
0
0
0
0
0
0
0
0
0
0
0
0
0
0
0
0
0
0
0
0
0
0
0
0
0
0
0
0
0
0
0
0
0
0
0
0
0
0
0
0
0
0
0
0
0
0
0
0
0
0
0
0
0
0
0
0
0
0
0
0
0
0
0
0
0
0
0
0
0
0
0
0
0
0
0
0
0
0
0
0
0
0
0
0
0
0
0
0
0
0
0
0
0
0
0
0
0
0
0
0
0
0
0
0
0
0
0
0
0
0
0
0
0
0
0
0
0
0
0
0
0
0
0
0
0
0
0
0
0
0
0
0
0
0
0
0
0
0
0
0
0
0
0
0
0
0
0
0
0
0
0
0
0
0
0
0
0
0
0
0
0
0
0
0
0
0
0
0
0
0
0
0
0
0
0
0
0
0
0
0
0
0
0
0
0
0
0
0
0
0
0
0
0
0
0
0
0
0
0
0
0
0
0
0
0
0
0
0
0
0
0
0
0
0
0
0
0
0
0
0
0
0
0
0
0
0
0
0
0
0
0
0
0
0
0
0
0
0
0
0
0
0
0
0
0
0
0
0
0
0
0
0
0
0
0
0
0
0
0
0
0
0
0
0
0
0
0
0
0
0
0
0
0
0
0
0
0
0
0
0
0
0
0
0
0
0
0
0
0
0
0
0
0
0
0
0
0
0
0
0
0
0
0
0
0
0
0
0
0
0
0
0
0
0
0
0
0
0
0
0
0
0
0
0
0
0
0
0
0
0
0
0
0
0
0
0
0
0
0
0
0
0
0
0
0
0
0
0
0
0
0
0
0
0
0
0
0
0
0
0
0
0
0
0
0
0
0
0
0
0
0
0
0
0
0
0
0
0
0
0
0
0
0
0
0
0
0
0
0
0
0
0
0
0
0
0
0
0
0
0
0
0
0
0
0
0
0
0
0
0
0
0
0
0
0
0
0
0
0
0
0
0
0
0
0
0
0
0
0
0
0
0
0
0
0
0
0
0
0
0
0
0
0
0
0
0
0
0
0
0
0
0
0
0
0
0
0
0
0
0
0
0
0
0
0
0
0
0
0
0
0
0
0
0
0
0
0
0
0
0
0
0
0
0
0
0
0
0
0
0
0
0
0
0
0
0
0
0
0
0
0
0
0
0
0
0
0
0
0
0
0
0
0
0
0
0
0
0
0
0
0
0
0
0
0
0
0
0
0
0
0
0
0
0
0
0
0
0
0
0
0
0
0
0
0
0
0
0
0
0
0
0
0
0
0
0
0
0
0
0
0
0
0
0
0
0
0
0
0
0
0
0
0
0
0
0
0
0
0
0
0
0
0
0
0
0
0
0
0
0
0
0
0
0
0
0
0
0
0
0
0
0
0
0
0
0
0
0
0
0
0
0
0
0
0
0
0
0
0
0
0
0
0
0
0
0
0
0
0
0
0
0
0
0
0
0
0
0
0
0
0
0
0
0
0
0
0
0
0
0
0
0
0
0
0
0
0
0
0
0
0
0
0
0
0
0
0
0
0
0
0
0
0
0
0
0
0
0
0
0
0
0
0
0
0
0
0
0
0
0
0
0
0
0
0
0
0
0
0
0
0
0
0
0
0
0
0
0
0
0
0
0
0
0
0
0
0
0
0
0
0
0
0
0
0
0
0
0
0
0
0
0
0
0
0
0
0
0
0
0
0
0
0
0
0
0
0
0
0
0
0
0
0
0
0
0
0
0
0
0
0
0
0
0
0
0
0
0
0
0
0
0
0
0
0
0
0
0
0
0
0
0
0
0
0
0
0
0
0
0
0
0
0
0
0
0
0
0
0
0
0
0
0
0
0
0
0
0
0
0
0
0
0
0
0
0
0
0
0
0
0
0
0
0
0
0
0
0
0
0
0
0
0
0
0
0
0
0
0
0
0
0
0
0
0
0
0
0
0
0
0
0
0
0
0
0
0
0
0
0
0
0
0
0
0
0
0
0
0
0
0
0
0
0
0
0
0
0
0
0
0
0
0
0
0
0
0
0
0
0
0
0
0
0
0
0
0
0
0
0
0
0
0
0
0
0
0
0
0
0
0
0
0
0
0
0
0
0
0
0
0
0
0
0
0
0
0
0
0
0
0
0
0
0
0
0
0
0
0
0
0
0
0
0
0
0
0
0
0
0
0
0
0
0
0
0
0
0
0
0
0
0
0
0
0
0
0
0
0
0
0
0
0
0
0
0
0
0
0
0
0
0
0
0
0
0
0
0
0
0
0
0
0
0
0
0
0
0
0
0
0
0
0
0
0
0
0
0
0
0
0
0
0
0
0
0
0
0
0
0
0
0
0
0
0
0
0
0
0
0
0
0
0
0
0
0
0
0
0
0
0
0
0
0
0
0
0
0
0
0
0
0
0
0
0
0
0
0
0
0
0
0
0
0
0
0
0
0
0
0
0
0
0
0
0
0
0
0
0
0
0
0
0
0
0
0
0
0
0
0
0
0
0
0
0
0
0
0
0
0
0
0
0
0
0
0
0
0
0
0
0
0
0
0
0
0
0
0
0
0
0
0
0
0
0
0
0
0
0
0
0
0
0
0
0
0
0
0
0
0
0
0
0
0
0
0
0
0
0
0
0
0
0
0
0
0
0
0
0
0
0
0
0
0
0
0
0
0
0
0
0
0
0
0
0
0
0
0
0
0
0
0
0
0
0
0
0
0
0
0
0
0
0
0
0
0
0
0
0
0
0
0
0
0
0
0
0
0
0
0
0
0
0
0
0
0
0
0
0
0
0
0
0
0
0
0
0
0
0
0
0
0
0
0
0
0
0
0
0
0
0
0
0
0
0
0
0
0
0
0
0
0
0
0
0
0
0
0
0
0
0
0
0
0
0
0
0
0
0
0
0
0
0
0
0
0
0
0
0
0
0
0
0
0
0
0
0
0
0
0
0
0
0
0
0
0
0
0
0
0
0
0
0
0
0
0
0
0
0
0
0
0
0
0
0
0
0
0
0
0
0
0
0
0
0
0
0
0
0
0
0
0
0
0
0
0
0
0
0
0
0
0
0
0
0
0
0
0
0
0
0
0
0
0
0
0
0
0
0
0
0
0
0
0
0
0
0
0
0
0
0
0
0
0
0
0
0
0
0
0
0
0
0
0
0
0
0
0
0
0
0
0
0
0
0
0
0
0
0
0
0
0
0
0
0
0
0
0
0
0
0
0
0
0
0
0
0
0
0
0
0
0
0
0
0
0
0
0
0
0
0
0
0
0
0
0
0
0
0
0
0
0
0
0
0
0
0
0
0
0
0
0
0
0
0
0
0
0
0
0
0
0
0
0
0.0776415
0.0529031
0.0436507
0.0357429
0.0304804
0.0271092
0.0248025
0.0231167
0.0218018
0.020729
0.0198252
0.0190458
0.0183625
0.0177557
0.0172115
0.0167198
0.0162728
0.0158645
0.0154903
0.0151467
0.0148312
0.0145421
0.0142785
0.0140401
0.0138266
0.0136374
0.0134709
0.0133227
0.0131842
0.0130409
0.0128709
0.0126433
0.0123188
0.0118509
0.0111912
0.0102966
0.00914155
0.00773197
0.00612078
0.00442023
0.00280635
0.00151098
0.000798783
0.00093205
0.00213236
0.00454655
0.0082308
0.0131508
0.0191918
0.0261894
0.0339462
0.0422501
0.0508972
0.0596837
0.0684348
0.0769894
0.0851803
0.0928427
0.0998193
0.105981
0.111211
0.115371
0.118296
0.119841
0.119916
0.11851
0.115682
0.111548
0.106275
0.10007
0.0931751
0.0858482
0.0783411
0.0708776
0.0636395
0.0567621
0.050336
0.0444141
0.0390187
0.0341496
0.0297903
0.0259133
0.0224849
0.0194678
0.0168234
0.014514
0.0125031
0.0107569
0.00924381
0.00793537
0.00680582
0.00583217
0.004994
0.0042733
0.00365425
0.00312299
0.00266747
0.00227717
0.00194299
0.00165703
0.00141248
0.00120346
0.00102492
0.000872498
0.000742439
0.000631502
0.000536915
0.000456324
0.000387728
0.000329409
0.000279854
0.000237722
0.000201846
0.000171251
0.00014517
0.000122993
0.000104188
8.82018e-05
7.44388e-05
6.23216e-05
5.1435e-05
4.16642e-05
3.32367e-05
2.66066e-05
2.22011e-05
2.01277e-05
1.9975e-05
2.0816e-05
2.14347e-05
2.0703e-05
1.79628e-05
1.32621e-05
7.35037e-06
1.4324e-06
-3.22572e-06
-5.69732e-06
-5.66523e-06
-3.48151e-06
-1.63979e-08
3.63345e-06
6.46996e-06
7.84843e-06
7.596e-06
5.98079e-06
3.56585e-06
1.01058e-06
-1.11474e-06
-2.453e-06
-2.90253e-06
-2.58465e-06
-1.76283e-06
-7.46254e-07
1.93429e-07
8.74514e-07
1.222e-06
1.25449e-06
1.05299e-06
7.24447e-07
3.70424e-07
6.66487e-08
-1.45132e-07
-2.55104e-07
-2.7697e-07
-2.37222e-07
-1.65301e-07
-8.6562e-08
-1.85753e-08
2.95927e-08
5.60707e-08
6.38695e-08
5.844e-08
4.56675e-08
3.05548e-08
1.65994e-08
5.71774e-09
-1.48764e-09
-5.31103e-09
-6.52307e-09
-6.03217e-09
-4.66114e-09
-3.03423e-09
-1.54969e-09
-4.06239e-10
3.45028e-10
7.44451e-10
8.75831e-10
8.32058e-10
6.94628e-10
5.24543e-10
3.61051e-10
2.24841e-10
1.23036e-10
5.42323e-11
1.26657e-11
-8.83404e-12
-1.7044e-11
-1.74679e-11
-1.40866e-11
-9.47656e-12
-5.09883e-12
-1.62546e-12
7.68958e-13
2.18185e-12
2.82731e-12
2.94106e-12
2.73062e-12
2.3557e-12
1.9265e-12
1.51093e-12
1.14491e-12
8.42477e-13
6.04238e-13
4.23573e-13
2.90841e-13
1.95947e-13
1.29716e-13
8.44736e-14
5.41697e-14
3.42345e-14
2.13384e-14
1.31258e-14
7.9727e-15
4.78426e-15
2.8376e-15
1.66413e-15
9.65356e-16
5.54107e-16
3.14804e-16
1.77072e-16
9.86361e-17
5.44256e-17
2.97543e-17
1.612e-17
8.6564e-18
4.60834e-18
2.43256e-18
1.27339e-18
6.61168e-19
3.40545e-19
1.74024e-19
8.82418e-20
4.44043e-20
2.21775e-20
1.09948e-20
5.41123e-21
2.64414e-21
1.28292e-21
6.18126e-22
2.95775e-22
1.4057e-22
6.63596e-23
3.11196e-23
1.44983e-23
6.71101e-24
3.08658e-24
1.41065e-24
6.40677e-25
2.89182e-25
1.29731e-25
5.78469e-26
2.56396e-26
1.1297e-26
4.94835e-27
2.1549e-27
9.33016e-28
4.01669e-28
1.71944e-28
7.3193e-29
3.09839e-29
1.30439e-29
5.46142e-30
2.27431e-30
9.42021e-31
3.88111e-31
1.59058e-31
6.48451e-32
2.6299e-32
1.06111e-32
4.25946e-33
1.70115e-33
6.75986e-34
2.67275e-34
1.05152e-34
4.11658e-35
1.60371e-35
6.21727e-36
2.3987e-36
9.21015e-37
3.51955e-37
1.3386e-37
5.06724e-38
1.90925e-38
7.16038e-39
2.67305e-39
9.93313e-40
3.67441e-40
1.35307e-40
4.96023e-41
1.81026e-41
6.57729e-42
2.37922e-42
8.5687e-43
3.07254e-43
1.09697e-43
3.89957e-44
1.3803e-44
4.86494e-45
1.70741e-45
5.96709e-46
2.07666e-46
7.19703e-47
2.48392e-47
8.53742e-48
2.92234e-48
9.9623e-49
3.38237e-49
1.14374e-49
3.85195e-50
1.2921e-50
4.31698e-51
1.43662e-51
4.762e-52
1.57228e-52
5.17099e-53
1.69406e-53
5.52842e-54
1.79721e-54
5.82013e-55
1.87762e-55
6.03438e-56
1.93203e-56
6.16255e-57
1.9583e-57
6.19977e-58
1.95551e-58
6.1452e-59
1.92404e-59
6.00204e-60
1.86551e-60
5.7772e-61
1.78265e-61
5.48084e-62
1.67908e-62
5.12555e-63
1.55907e-63
4.72551e-64
1.42725e-64
4.29558e-65
1.28832e-65
3.85043e-66
1.1468e-66
3.40376e-67
1.00678e-67
2.9677e-68
8.71803e-69
2.55233e-69
7.44698e-70
2.16548e-70
6.27575e-71
1.81267e-71
5.21818e-72
1.49717e-72
4.28138e-73
1.22028e-73
3.46658e-74
9.81564e-75
2.77022e-75
7.7928e-76
2.18505e-76
6.10695e-77
1.70132e-77
4.72444e-78
1.30775e-78
3.60836e-79
9.92462e-80
2.72108e-80
7.43696e-81
2.0262e-81
5.50307e-82
1.48994e-82
4.02141e-83
1.08203e-83
2.90237e-84
7.76114e-85
2.06901e-85
5.49877e-86
1.45694e-86
3.84851e-87
1.0135e-87
2.66097e-88
6.96538e-89
1.81778e-89
4.72972e-90
1.22696e-90
3.17344e-91
8.18347e-92
2.10406e-92
5.39381e-93
1.37865e-93
3.51346e-94
8.9278e-95
2.26197e-95
5.7143e-96
1.4394e-96
3.61526e-97
9.05411e-98
2.26101e-98
5.63006e-99
1.39792e-99
3.46107e-100
8.54486e-101
2.10362e-101
5.16418e-102
1.26418e-102
3.08601e-103
7.5122e-104
1.82357e-104
4.41434e-105
1.06562e-105
2.56527e-106
6.15832e-107
1.47433e-107
3.51991e-108
8.38063e-109
1.98991e-109
4.712e-110
1.11274e-110
2.62064e-111
6.1552e-112
1.4418e-112
3.3682e-113
7.84737e-114
1.82342e-114
4.22561e-115
9.76641e-116
2.25126e-116
5.17565e-117
1.18674e-117
2.71394e-118
6.19016e-119
1.4082e-119
3.19514e-120
7.23071e-121
1.63208e-121
3.67428e-122
8.25045e-123
1.84782e-123
4.12784e-124
9.19746e-125
2.04408e-125
4.53123e-126
1.0019e-126
2.20967e-127
4.86101e-128
1.06666e-128
2.33465e-129
5.09712e-130
1.11003e-130
2.41131e-131
5.22496e-132
1.12935e-132
2.43494e-133
5.23683e-134
1.12349e-134
2.40435e-135
5.13276e-136
1.09303e-136
2.32192e-137
4.92036e-138
1.04012e-138
2.19334e-139
4.61394e-140
9.68238e-141
2.02693e-141
4.23294e-142
8.81856e-143
1.83276e-143
3.79989e-144
7.85946e-145
1.62172e-145
3.33826e-146
6.85534e-147
1.40445e-147
2.87046e-148
5.85286e-149
1.19058e-149
2.41616e-150
4.89183e-151
9.8809e-152
1.99115e-152
4.0031e-153
8.02927e-154
1.60674e-154
3.20777e-155
6.38934e-156
1.26971e-156
2.51738e-157
4.9796e-158
9.82745e-159
1.93504e-159
3.80143e-160
7.45093e-161
1.45708e-161
2.84295e-162
5.53437e-163
1.07494e-163
2.08313e-164
4.02781e-165
7.77041e-166
1.49569e-166
2.87254e-167
5.50451e-168
1.05245e-168
2.00777e-169
3.82173e-170
7.25842e-171
1.3755e-171
2.60088e-172
4.90704e-173
9.23767e-174
1.7352e-174
3.25225e-175
6.08228e-176
1.13501e-176
2.11342e-177
3.92667e-178
7.2798e-179
1.34671e-179
2.48591e-180
4.57887e-181
8.41579e-182
1.54346e-182
2.82465e-183
5.15823e-184
9.39954e-185
1.70917e-185
3.10125e-186
5.61517e-187
1.01453e-187
1.82915e-188
3.29088e-189
5.90822e-190
1.05849e-190
1.89234e-191
3.37599e-192
6.01023e-193
1.06775e-193
1.89297e-194
3.34896e-195
5.9125e-196
1.04167e-196
1.83141e-197
3.21325e-198
5.62604e-199
9.83026e-200
1.71409e-200
2.98268e-201
5.17951e-202
8.97595e-203
1.55233e-203
2.67916e-204
4.61455e-205
7.93187e-206
1.36063e-206
2.32928e-207
3.97947e-208
6.785e-209
1.15451e-209
1.96053e-210
3.32256e-211
5.61954e-212
9.48547e-213
1.59789e-213
2.68639e-214
4.50738e-215
7.5477e-216
1.26137e-216
2.10381e-217
3.50197e-218
5.81781e-219
9.64602e-220
1.59618e-220
2.63609e-221
4.34496e-222
7.14758e-223
1.1735e-223
1.9229e-224
3.14473e-225
5.13291e-226
8.36179e-227
1.35954e-227
2.20618e-228
3.57315e-229
5.77592e-230
9.31866e-231
1.50054e-231
2.41162e-232
3.86843e-233
6.19339e-234
9.89671e-235
1.57842e-235
2.51262e-236
3.9921e-237
6.3307e-238
1.00202e-238
1.58299e-239
2.49607e-240
3.9284e-241
6.17098e-242
9.67552e-243
1.51418e-243
2.36518e-244
3.68754e-245
5.73847e-246
8.9134e-247
1.38191e-247
2.13848e-248
3.30312e-249
5.09254e-250
7.83681e-251
1.20376e-251
1.84559e-252
2.82443e-253
4.31443e-254
6.57835e-255
1.00118e-255
1.52093e-256
2.30626e-257
3.49071e-258
5.27382e-259
7.95323e-260
1.19721e-260
1.7989e-261
2.69807e-262
4.03936e-263
6.03648e-264
9.00471e-265
1.34082e-265
1.99291e-266
2.95681e-267
4.37902e-268
6.47366e-269
9.5531e-270
1.40721e-270
2.06919e-271
3.03713e-272
4.44992e-273
6.5083e-274
9.50189e-275
1.38478e-275
2.01457e-276
2.9256e-277
4.24109e-278
6.13726e-279
8.86554e-280
1.27841e-280
1.84023e-281
2.64431e-282
3.79305e-283
5.43132e-284
7.76358e-285
1.1078e-285
1.57798e-286
2.24381e-287
3.18503e-288
4.51324e-289
6.38423e-290
9.01523e-291
1.27085e-291
1.78838e-292
2.51233e-293
3.52327e-294
4.9325e-295
6.89354e-296
9.61772e-297
1.33954e-297
1.86251e-298
2.58523e-299
3.58225e-300
4.95535e-301
6.84309e-302
9.43391e-303
1.29836e-303
1.78385e-304
2.44675e-305
3.3503e-306
4.57979e-307
6.24992e-308
8.51474e-309
1.15808e-309
1.57244e-310
2.13148e-311
2.88443e-312
3.89684e-313
5.25579e-314
7.07683e-315
9.51295e-316
1.27664e-316
1.7104e-317
2.28775e-318
3.05496e-319
4.07258e-320
5.4199e-321
7.16395e-322
9.38725e-323
9.88131e-324
0
0
0
0
0
0
0
0
0
0
0
0
0
0
0
0
0
0
0
0
0
0
0
0
0
0
0
0
0
0
0
0
0
0
0
0
0
0
0
0
0
0
0
0
0
0
0
0
0
0
0
0
0
0
0
0
0
0
0
0
0
0
0
0
0
0
0
0
0
0
0
0
0
0
0
0
0
0
0
0
0
0
0
0
0
0
0
0
0
0
0
0
0
0
0
0
0
0
0
0
0
0
0
0
0
0
0
0
0
0
0
0
0
0
0
0
0
0
0
0
0
0
0
0
0
0
0
0
0
0
0
0
0
0
0
0
0
0
0
0
0
0
0
0
0
0
0
0
0
0
0
0
0
0
0
0
0
0
0
0
0
0
0
0
0
0
0
0
0
0
0
0
0
0
0
0
0
0
0
0
0
0
0
0
0
0
0
0
0
0
0
0
0
0
0
0
0
0
0
0
0
0
0
0
0
0
0
0
0
0
0
0
0
0
0
0
0
0
0
0
0
0
0
0
0
0
0
0
0
0
0
0
0
0
0
0
0
0
0
0
0
0
0
0
0
0
0
0
0
0
0
0
0
0
0
0
0
0
0
0
0
0
0
0
0
0
0
0
0
0
0
0
0
0
0
0
0
0
0
0
0
0
0
0
0
0
0
0
0
0
0
0
0
0
0
0
0
0
0
0
0
0
0
0
0
0
0
0
0
0
0
0
0
0
0
0
0
0
0
0
0
0
0
0
0
0
0
0
0
0
0
0
0
0
0
0
0
0
0
0
0
0
0
0
0
0
0
0
0
0
0
0
0
0
0
0
0
0
0
0
0
0
0
0
0
0
0
0
0
0
0
0
0
0
0
0
0
0
0
0
0
0
0
0
0
0
0
0
0
0
0
0
0
0
0
0
0
0
0
0
0
0
0
0
0
0
0
0
0
0
0
0
0
0
0
0
0
0
0
0
0
0
0
0
0
0
0
0
0
0
0
0
0
0
0
0
0
0
0
0
0
0
0
0
0
0
0
0
0
0
0
0
0
0
0
0
0
0
0
0
0
0
0
0
0
0
0
0
0
0
0
0
0
0
0
0
0
0
0
0
0
0
0
0
0
0
0
0
0
0
0
0
0
0
0
0
0
0
0
0
0
0
0
0
0
0
0
0
0
0
0
0
0
0
0
0
0
0
0
0
0
0
0
0
0
0
0
0
0
0
0
0
0
0
0
0
0
0
0
0
0
0
0
0
0
0
0
0
0
0
0
0
0
0
0
0
0
0
0
0
0
0
0
0
0
0
0
0
0
0
0
0
0
0
0
0
0
0
0
0
0
0
0
0
0
0
0
0
0
0
0
0
0
0
0
0
0
0
0
0
0
0
0
0
0
0
0
0
0
0
0
0
0
0
0
0
0
0
0
0
0
0
0
0
0
0
0
0
0
0
0
0
0
0
0
0
0
0
0
0
0
0
0
0
0
0
0
0
0
0
0
0
0
0
0
0
0
0
0
0
0
0
0
0
0
0
0
0
0
0
0
0
0
0
0
0
0
0
0
0
0
0
0
0
0
0
0
0
0
0
0
0
0
0
0
0
0
0
0
0
0
0
0
0
0
0
0
0
0
0
0
0
0
0
0
0
0
0
0
0
0
0
0
0
0
0
0
0
0
0
0
0
0
0
0
0
0
0
0
0
0
0
0
0
0
0
0
0
0
0
0
0
0
0
0
0
0
0
0
0
0
0
0
0
0
0
0
0
0
0
0
0
0
0
0
0
0
0
0
0
0
0
0
0
0
0
0
0
0
0
0
0
0
0
0
0
0
0
0
0
0
0
0
0
0
0
0
0
0
0
0
0
0
0
0
0
0
0
0
0
0
0
0
0
0
0
0
0
0
0
0
0
0
0
0
0
0
0
0
0
0
0
0
0
0
0
0
0
0
0
0
0
0
0
0
0
0
0
0
0
0
0
0
0
0
0
0
0
0
0
0
0
0
0
0
0
0
0
0
0
0
0
0
0
0
0
0
0
0
0
0
0
0
0
0
0
0.0627871
0.0345543
0.0299576
0.0252772
0.0221394
0.0200072
0.0184499
0.0172645
0.0163163
0.0155322
0.0148665
0.01429
0.0137831
0.0133321
0.0129272
0.012561
0.0122278
0.0119232
0.0116439
0.0113874
0.0111517
0.0109357
0.0107387
0.0105608
0.0104018
0.0102614
0.0101386
0.0100306
0.00993137
0.00983046
0.00971187
0.00955299
0.00932447
0.00899126
0.00851577
0.00786338
0.0070106
0.00595567
0.00473048
0.00341132
0.00212466
0.00104397
0.000374505
0.000326402
0.00108291
0.00276981
0.00543776
0.00905978
0.013539
0.0187326
0.0244654
0.0305499
0.0368058
0.0430587
0.049156
0.0549716
0.0603899
0.0653139
0.0696638
0.073386
0.0764401
0.0787787
0.0803447
0.0810892
0.0809905
0.08006
0.0783371
0.0758827
0.0727733
0.0690996
0.0649664
0.0604918
0.0558031
0.0510278
0.0462843
0.0416738
0.0372756
0.0331463
0.0293219
0.0258206
0.0226464
0.0197927
0.0172453
0.0149853
0.0129906
0.011238
0.00970415
0.00836612
0.0072023
0.00619254
0.00531834
0.00456293
0.00391126
0.00334989
0.00286693
0.00245189
0.00209559
0.00178999
0.00152809
0.0013038
0.00111185
0.000947675
0.000807355
0.000687502
0.00058519
0.000497886
0.000423413
0.000359919
0.000305843
0.000259853
0.00022079
0.00018761
0.000159382
0.000135311
0.000114768
9.72815e-05
8.24727e-05
6.99648e-05
5.93127e-05
5.0015e-05
4.16195e-05
3.38762e-05
2.68479e-05
2.08967e-05
1.65189e-05
1.40793e-05
1.35589e-05
1.44347e-05
1.57648e-05
1.64598e-05
1.56419e-05
1.29502e-05
8.67186e-06
3.64879e-06
-1.00412e-06
-4.26198e-06
-5.50497e-06
-4.68277e-06
-2.2878e-06
8.34471e-07
3.75894e-06
5.74287e-06
6.39865e-06
5.74003e-06
4.10967e-06
2.03039e-06
3.67589e-08
-1.46203e-06
-2.25718e-06
-2.34688e-06
-1.88877e-06
-1.12396e-06
-2.99521e-07
3.90273e-07
8.34202e-07
1.00614e-06
9.46449e-07
7.33352e-07
4.54153e-07
1.83288e-07
-2.97948e-08
-1.63232e-07
-2.18357e-07
-2.11672e-07
-1.66247e-07
-1.04684e-07
-4.46598e-08
2.87969e-09
3.3463e-08
4.75768e-08
4.86979e-08
4.14615e-08
3.03027e-08
1.867e-08
8.74853e-09
1.54607e-09
-2.82327e-09
-4.79626e-09
-5.05235e-09
-4.28743e-09
-3.07981e-09
-1.83553e-09
-7.89564e-10
-3.83727e-11
4.16219e-10
6.2517e-10
6.59459e-10
5.8846e-10
4.68456e-10
3.38769e-10
2.22715e-10
1.30959e-10
6.55393e-11
2.35131e-11
-2.47362e-13
-1.12082e-11
-1.41452e-11
-1.27213e-11
-9.45079e-12
-5.86829e-12
-2.77341e-12
-4.73503e-13
1.01562e-12
1.82302e-12
2.12714e-12
2.10109e-12
1.88701e-12
1.58873e-12
1.27435e-12
9.83402e-13
7.34782e-13
5.33979e-13
3.7867e-13
2.62702e-13
1.78645e-13
1.1927e-13
7.82816e-14
5.05647e-14
3.21734e-14
2.01817e-14
1.2489e-14
7.62905e-15
4.6028e-15
2.74404e-15
1.61719e-15
9.42554e-16
5.43471e-16
3.10108e-16
1.75164e-16
9.79697e-17
5.42702e-17
2.97822e-17
1.61947e-17
8.72767e-18
4.66247e-18
2.46947e-18
1.29699e-18
6.75585e-19
3.49063e-19
1.78924e-19
9.09984e-20
4.59256e-20
2.30031e-20
1.14361e-20
5.64391e-21
2.76527e-21
1.34523e-21
6.49833e-22
3.11739e-22
1.48527e-22
7.02882e-23
3.30415e-23
1.54302e-23
7.15905e-24
3.30021e-24
1.51169e-24
6.88095e-25
3.11266e-25
1.39939e-25
6.25316e-26
2.77741e-26
1.22628e-26
5.38233e-27
2.3486e-27
1.0189e-27
4.395e-28
1.88502e-28
8.03944e-29
3.40964e-29
1.43809e-29
6.03229e-30
2.5166e-30
1.04424e-30
4.30989e-31
1.7694e-31
7.22601e-32
2.93565e-32
1.18647e-32
4.77068e-33
1.90847e-33
7.59614e-34
3.00827e-34
1.18543e-34
4.64815e-35
1.81364e-35
7.04208e-36
2.7211e-36
1.0464e-36
4.00473e-37
1.52541e-37
5.78296e-38
2.18212e-38
8.19564e-39
3.06393e-39
1.14019e-39
4.2237e-40
1.55753e-40
5.71767e-41
2.08956e-41
7.60247e-42
2.75378e-42
9.93099e-43
3.56577e-43
1.27474e-43
4.53746e-44
1.60818e-44
5.6754e-45
1.99439e-45
6.97888e-46
2.43183e-46
8.43846e-47
2.91598e-47
1.00348e-47
3.43907e-48
1.1738e-48
3.99004e-49
1.35082e-49
4.55477e-50
1.52965e-50
5.1166e-51
1.70469e-51
5.65707e-52
1.86994e-52
6.15691e-53
2.01932e-53
6.59725e-54
2.14705e-54
6.96072e-55
2.24804e-55
7.2327e-56
2.3182e-56
7.40223e-57
2.35474e-57
7.46276e-58
2.35635e-58
7.41259e-59
2.32326e-59
7.25488e-60
2.25722e-60
6.99739e-61
2.16134e-61
6.65184e-62
2.03985e-62
6.23303e-63
1.89781e-63
5.75787e-64
1.74075e-64
5.2442e-65
1.57434e-65
4.70978e-66
1.40408e-66
4.17134e-67
1.23498e-67
3.64377e-68
1.0714e-68
3.13959e-69
9.16888e-70
2.66863e-70
7.74094e-71
2.23789e-71
6.44808e-72
1.85171e-72
5.29993e-73
1.51192e-73
4.29887e-74
1.21829e-74
3.44131e-75
9.68902e-76
2.71908e-76
7.606e-77
2.12074e-77
5.89414e-78
1.6329e-78
4.50931e-79
1.2413e-79
3.40616e-80
9.31704e-81
2.54051e-81
6.90557e-82
1.87119e-82
5.0545e-83
1.36109e-83
3.65384e-84
9.77843e-85
2.60886e-85
6.939e-86
1.83998e-86
4.86413e-87
1.28196e-87
3.36843e-88
8.82403e-89
2.30461e-89
6.00099e-90
1.55793e-90
4.03251e-91
1.04066e-91
2.67767e-92
6.86939e-93
1.75711e-93
4.48127e-94
1.13954e-94
2.88928e-95
7.30439e-96
1.84126e-96
4.62796e-97
1.15987e-97
2.89852e-98
7.22265e-99
1.79462e-99
4.44641e-100
1.09852e-100
2.7063e-101
6.64833e-102
1.62863e-102
3.97843e-103
9.69126e-104
2.35414e-104
5.7026e-105
1.37754e-105
3.3184e-106
7.97172e-107
1.90974e-107
4.5625e-108
1.08702e-108
2.58275e-109
6.11985e-110
1.44616e-110
3.4081e-111
8.00996e-112
1.87748e-112
4.38883e-113
1.02319e-113
2.37901e-114
5.51667e-115
1.27585e-115
2.94283e-116
6.76984e-117
1.55325e-117
3.55434e-118
8.11208e-119
1.84656e-119
4.19236e-120
9.4933e-121
2.14409e-121
4.82993e-122
1.0852e-122
2.43197e-123
5.43604e-124
1.21196e-124
2.69514e-125
5.97804e-126
1.32259e-126
2.91868e-127
6.42454e-128
1.41057e-128
3.08922e-129
6.74847e-130
1.47051e-130
3.19623e-131
6.92977e-132
1.4987e-132
3.23313e-133
6.95749e-134
1.49349e-134
3.19798e-135
6.83084e-136
1.45547e-136
3.09357e-137
6.55922e-138
1.38733e-138
2.92715e-139
6.161e-140
1.2936e-140
2.70954e-141
5.66158e-142
1.18013e-142
2.454e-143
5.09066e-144
1.05349e-144
2.17494e-145
4.47944e-146
9.20377e-147
1.88657e-147
3.85789e-148
7.87039e-149
1.60183e-149
3.25245e-150
6.58845e-151
1.33148e-151
2.68453e-152
5.39991e-153
1.08365e-153
2.16961e-154
4.33375e-155
8.63651e-156
1.71715e-156
3.40623e-157
6.74121e-158
1.33108e-158
2.62224e-159
5.15401e-160
1.01071e-160
1.9775e-161
3.86026e-162
7.51849e-163
1.46103e-163
2.83274e-164
5.47989e-165
1.05769e-165
2.03689e-166
3.91384e-167
7.50351e-168
1.43534e-168
2.73954e-169
5.21713e-170
9.91337e-171
1.87952e-171
3.55559e-172
6.71146e-173
1.26405e-173
2.3755e-174
4.45444e-175
8.33449e-176
1.55602e-176
2.89868e-177
5.38817e-178
9.99394e-179
1.84965e-179
3.41586e-180
6.29466e-181
1.15746e-181
2.12376e-182
3.88839e-183
7.10398e-184
1.2951e-184
2.35601e-185
4.27683e-186
7.74716e-187
1.40036e-187
2.52589e-188