# vtk DataFile Version 2.0
FlowField
ASCII
DATASET STRUCTURED_GRID
DIMENSIONS 1602 1 52
POINTS 83304 float
0 0 0
0.1 0 0
0.2 0 0
0.3 0 0
0.4 0 0
0.5 0 0
0.6 0 0
0.7 0 0
0.8 0 0
0.9 0 0
1 0 0
1.1 0 0
1.2 0 0
1.3 0 0
1.4 0 0
1.5 0 0
1.6 0 0
1.7 0 0
1.8 0 0
1.9 0 0
2 0 0
2.1 0 0
2.2 0 0
2.3 0 0
2.4 0 0
2.5 0 0
2.6 0 0
2.7 0 0
2.8 0 0
2.9 0 0
3 0 0
3.1 0 0
3.2 0 0
3.3 0 0
3.4 0 0
3.5 0 0
3.6 0 0
3.7 0 0
3.8 0 0
3.9 0 0
4 0 0
4.1 0 0
4.2 0 0
4.3 0 0
4.4 0 0
4.5 0 0
4.6 0 0
4.7 0 0
4.8 0 0
4.9 0 0
5 0 0
5.1 0 0
5.2 0 0
5.3 0 0
5.4 0 0
5.5 0 0
5.6 0 0
5.7 0 0
5.8 0 0
5.9 0 0
6 0 0
6.1 0 0
6.2 0 0
6.3 0 0
6.4 0 0
6.5 0 0
6.6 0 0
6.7 0 0
6.8 0 0
6.9 0 0
7 0 0
7.1 0 0
7.2 0 0
7.3 0 0
7.4 0 0
7.5 0 0
7.6 0 0
7.7 0 0
7.8 0 0
7.9 0 0
8 0 0
8.1 0 0
8.2 0 0
8.3 0 0
8.4 0 0
8.5 0 0
8.6 0 0
8.7 0 0
8.8 0 0
8.9 0 0
9 0 0
9.1 0 0
9.2 0 0
9.3 0 0
9.4 0 0
9.5 0 0
9.6 0 0
9.7 0 0
9.8 0 0
9.9 0 0
10 0 0
10.1 0 0
10.2 0 0
10.3 0 0
10.4 0 0
10.5 0 0
10.6 0 0
10.7 0 0
10.8 0 0
10.9 0 0
11 0 0
11.1 0 0
11.2 0 0
11.3 0 0
11.4 0 0
11.5 0 0
11.6 0 0
11.7 0 0
11.8 0 0
11.9 0 0
12 0 0
12.1 0 0
12.2 0 0
12.3 0 0
12.4 0 0
12.5 0 0
12.6 0 0
12.7 0 0
12.8 0 0
12.9 0 0
13 0 0
13.1 0 0
13.2 0 0
13.3 0 0
13.4 0 0
13.5 0 0
13.6 0 0
13.7 0 0
13.8 0 0
13.9 0 0
14 0 0
14.1 0 0
14.2 0 0
14.3 0 0
14.4 0 0
14.5 0 0
14.6 0 0
14.7 0 0
14.8 0 0
14.9 0 0
15 0 0
15.1 0 0
15.2 0 0
15.3 0 0
15.4 0 0
15.5 0 0
15.6 0 0
15.7 0 0
15.8 0 0
15.9 0 0
16 0 0
16.1 0 0
16.2 0 0
16.3 0 0
16.4 0 0
16.5 0 0
16.6 0 0
16.7 0 0
16.8 0 0
16.9 0 0
17 0 0
17.1 0 0
17.2 0 0
17.3 0 0
17.4 0 0
17.5 0 0
17.6 0 0
17.7 0 0
17.8 0 0
17.9 0 0
18 0 0
18.1 0 0
18.2 0 0
18.3 0 0
18.4 0 0
18.5 0 0
18.6 0 0
18.7 0 0
18.8 0 0
18.9 0 0
19 0 0
19.1 0 0
19.2 0 0
19.3 0 0
19.4 0 0
19.5 0 0
19.6 0 0
19.7 0 0
19.8 0 0
19.9 0 0
20 0 0
20.1 0 0
20.2 0 0
20.3 0 0
20.4 0 0
20.5 0 0
20.6 0 0
20.7 0 0
20.8 0 0
20.9 0 0
21 0 0
21.1 0 0
21.2 0 0
21.3 0 0
21.4 0 0
21.5 0 0
21.6 0 0
21.7 0 0
21.8 0 0
21.9 0 0
22 0 0
22.1 0 0
22.2 0 0
22.3 0 0
22.4 0 0
22.5 0 0
22.6 0 0
22.7 0 0
22.8 0 0
22.9 0 0
23 0 0
23.1 0 0
23.2 0 0
23.3 0 0
23.4 0 0
23.5 0 0
23.6 0 0
23.7 0 0
23.8 0 0
23.9 0 0
24 0 0
24.1 0 0
24.2 0 0
24.3 0 0
24.4 0 0
24.5 0 0
24.6 0 0
24.7 0 0
24.8 0 0
24.9 0 0
25 0 0
25.1 0 0
25.2 0 0
25.3 0 0
25.4 0 0
25.5 0 0
25.6 0 0
25.7 0 0
25.8 0 0
25.9 0 0
26 0 0
26.1 0 0
26.2 0 0
26.3 0 0
26.4 0 0
26.5 0 0
26.6 0 0
26.7 0 0
26.8 0 0
26.9 0 0
27 0 0
27.1 0 0
27.2 0 0
27.3 0 0
27.4 0 0
27.5 0 0
27.6 0 0
27.7 0 0
27.8 0 0
27.9 0 0
28 0 0
28.1 0 0
28.2 0 0
28.3 0 0
28.4 0 0
28.5 0 0
28.6 0 0
28.7 0 0
28.8 0 0
28.9 0 0
29 0 0
29.1 0 0
29.2 0 0
29.3 0 0
29.4 0 0
29.5 0 0
29.6 0 0
29.7 0 0
29.8 0 0
29.9 0 0
30 0 0
30.1 0 0
30.2 0 0
30.3 0 0
30.4 0 0
30.5 0 0
30.6 0 0
30.7 0 0
30.8 0 0
30.9 0 0
31 0 0
31.1 0 0
31.2 0 0
31.3 0 0
31.4 0 0
31.5 0 0
31.6 0 0
31.7 0 0
31.8 0 0
31.9 0 0
32 0 0
32.1 0 0
32.2 0 0
32.3 0 0
32.4 0 0
32.5 0 0
32.6 0 0
32.7 0 0
32.8 0 0
32.9 0 0
33 0 0
33.1 0 0
33.2 0 0
33.3 0 0
33.4 0 0
33.5 0 0
33.6 0 0
33.7 0 0
33.8 0 0
33.9 0 0
34 0 0
34.1 0 0
34.2 0 0
34.3 0 0
34.4 0 0
34.5 0 0
34.6 0 0
34.7 0 0
34.8 0 0
34.9 0 0
35 0 0
35.1 0 0
35.2 0 0
35.3 0 0
35.4 0 0
35.5 0 0
35.6 0 0
35.7 0 0
35.8 0 0
35.9 0 0
36 0 0
36.1 0 0
36.2 0 0
36.3 0 0
36.4 0 0
36.5 0 0
36.6 0 0
36.7 0 0
36.8 0 0
36.9 0 0
37 0 0
37.1 0 0
37.2 0 0
37.3 0 0
37.4 0 0
37.5 0 0
37.6 0 0
37.7 0 0
37.8 0 0
37.9 0 0
38 0 0
38.1 0 0
38.2 0 0
38.3 0 0
38.4 0 0
38.5 0 0
38.6 0 0
38.7 0 0
38.8 0 0
38.9 0 0
39 0 0
39.1 0 0
39.2 0 0
39.3 0 0
39.4 0 0
39.5 0 0
39.6 0 0
39.7 0 0
39.8 0 0
39.9 0 0
40 0 0
40.1 0 0
40.2 0 0
40.3 0 0
40.4 0 0
40.5 0 0
40.6 0 0
40.7 0 0
40.8 0 0
40.9 0 0
41 0 0
41.1 0 0
41.2 0 0
41.3 0 0
41.4 0 0
41.5 0 0
41.6 0 0
41.7 0 0
41.8 0 0
41.9 0 0
42 0 0
42.1 0 0
42.2 0 0
42.3 0 0
42.4 0 0
42.5 0 0
42.6 0 0
42.7 0 0
42.8 0 0
42.9 0 0
43 0 0
43.1 0 0
43.2 0 0
43.3 0 0
43.4 0 0
43.5 0 0
43.6 0 0
43.7 0 0
43.8 0 0
43.9 0 0
44 0 0
44.1 0 0
44.2 0 0
44.3 0 0
44.4 0 0
44.5 0 0
44.6 0 0
44.7 0 0
44.8 0 0
44.9 0 0
45 0 0
45.1 0 0
45.2 0 0
45.3 0 0
45.4 0 0
45.5 0 0
45.6 0 0
45.7 0 0
45.8 0 0
45.9 0 0
46 0 0
46.1 0 0
46.2 0 0
46.3 0 0
46.4 0 0
46.5 0 0
46.6 0 0
46.7 0 0
46.8 0 0
46.9 0 0
47 0 0
47.1 0 0
47.2 0 0
47.3 0 0
47.4 0 0
47.5 0 0
47.6 0 0
47.7 0 0
47.8 0 0
47.9 0 0
48 0 0
48.1 0 0
48.2 0 0
48.3 0 0
48.4 0 0
48.5 0 0
48.6 0 0
48.7 0 0
48.8 0 0
48.9 0 0
49 0 0
49.1 0 0
49.2 0 0
49.3 0 0
49.4 0 0
49.5 0 0
49.6 0 0
49.7 0 0
49.8 0 0
49.9 0 0
50 0 0
50.1 0 0
50.2 0 0
50.3 0 0
50.4 0 0
50.5 0 0
50.6 0 0
50.7 0 0
50.8 0 0
50.9 0 0
51 0 0
51.1 0 0
51.2 0 0
51.3 0 0
51.4 0 0
51.5 0 0
51.6 0 0
51.7 0 0
51.8 0 0
51.9 0 0
52 0 0
52.1 0 0
52.2 0 0
52.3 0 0
52.4 0 0
52.5 0 0
52.6 0 0
52.7 0 0
52.8 0 0
52.9 0 0
53 0 0
53.1 0 0
53.2 0 0
53.3 0 0
53.4 0 0
53.5 0 0
53.6 0 0
53.7 0 0
53.8 0 0
53.9 0 0
54 0 0
54.1 0 0
54.2 0 0
54.3 0 0
54.4 0 0
54.5 0 0
54.6 0 0
54.7 0 0
54.8 0 0
54.9 0 0
55 0 0
55.1 0 0
55.2 0 0
55.3 0 0
55.4 0 0
55.5 0 0
55.6 0 0
55.7 0 0
55.8 0 0
55.9 0 0
56 0 0
56.1 0 0
56.2 0 0
56.3 0 0
56.4 0 0
56.5 0 0
56.6 0 0
56.7 0 0
56.8 0 0
56.9 0 0
57 0 0
57.1 0 0
57.2 0 0
57.3 0 0
57.4 0 0
57.5 0 0
57.6 0 0
57.7 0 0
57.8 0 0
57.9 0 0
58 0 0
58.1 0 0
58.2 0 0
58.3 0 0
58.4 0 0
58.5 0 0
58.6 0 0
58.7 0 0
58.8 0 0
58.9 0 0
59 0 0
59.1 0 0
59.2 0 0
59.3 0 0
59.4 0 0
59.5 0 0
59.6 0 0
59.7 0 0
59.8 0 0
59.9 0 0
60 0 0
60.1 0 0
60.2 0 0
60.3 0 0
60.4 0 0
60.5 0 0
60.6 0 0
60.7 0 0
60.8 0 0
60.9 0 0
61 0 0
61.1 0 0
61.2 0 0
61.3 0 0
61.4 0 0
61.5 0 0
61.6 0 0
61.7 0 0
61.8 0 0
61.9 0 0
62 0 0
62.1 0 0
62.2 0 0
62.3 0 0
62.4 0 0
62.5 0 0
62.6 0 0
62.7 0 0
62.8 0 0
62.9 0 0
63 0 0
63.1 0 0
63.2 0 0
63.3 0 0
63.4 0 0
63.5 0 0
63.6 0 0
63.7 0 0
63.8 0 0
63.9 0 0
64 0 0
64.1 0 0
64.2 0 0
64.3 0 0
64.4 0 0
64.5 0 0
64.6 0 0
64.7 0 0
64.8 0 0
64.9 0 0
65 0 0
65.1 0 0
65.2 0 0
65.3 0 0
65.4 0 0
65.5 0 0
65.6 0 0
65.7 0 0
65.8 0 0
65.9 0 0
66 0 0
66.1 0 0
66.2 0 0
66.3 0 0
66.4 0 0
66.5 0 0
66.6 0 0
66.7 0 0
66.8 0 0
66.9 0 0
67 0 0
67.1 0 0
67.2 0 0
67.3 0 0
67.4 0 0
67.5 0 0
67.6 0 0
67.7 0 0
67.8 0 0
67.9 0 0
68 0 0
68.1 0 0
68.2 0 0
68.3 0 0
68.4 0 0
68.5 0 0
68.6 0 0
68.7 0 0
68.8 0 0
68.9 0 0
69 0 0
69.1 0 0
69.2 0 0
69.3 0 0
69.4 0 0
69.5 0 0
69.6 0 0
69.7 0 0
69.8 0 0
69.9 0 0
70 0 0
70.1 0 0
70.2 0 0
70.3 0 0
70.4 0 0
70.5 0 0
70.6 0 0
70.7 0 0
70.8 0 0
70.9 0 0
71 0 0
71.1 0 0
71.2 0 0
71.3 0 0
71.4 0 0
71.5 0 0
71.6 0 0
71.7 0 0
71.8 0 0
71.9 0 0
72 0 0
72.1 0 0
72.2 0 0
72.3 0 0
72.4 0 0
72.5 0 0
72.6 0 0
72.7 0 0
72.8 0 0
72.9 0 0
73 0 0
73.1 0 0
73.2 0 0
73.3 0 0
73.4 0 0
73.5 0 0
73.6 0 0
73.7 0 0
73.8 0 0
73.9 0 0
74 0 0
74.1 0 0
74.2 0 0
74.3 0 0
74.4 0 0
74.5 0 0
74.6 0 0
74.7 0 0
74.8 0 0
74.9 0 0
75 0 0
75.1 0 0
75.2 0 0
75.3 0 0
75.4 0 0
75.5 0 0
75.6 0 0
75.7 0 0
75.8 0 0
75.9 0 0
76 0 0
76.1 0 0
76.2 0 0
76.3 0 0
76.4 0 0
76.5 0 0
76.6 0 0
76.7 0 0
76.8 0 0
76.9 0 0
77 0 0
77.1 0 0
77.2 0 0
77.3 0 0
77.4 0 0
77.5 0 0
77.6 0 0
77.7 0 0
77.8 0 0
77.9 0 0
78 0 0
78.1 0 0
78.2 0 0
78.3 0 0
78.4 0 0
78.5 0 0
78.6 0 0
78.7 0 0
78.8 0 0
78.9 0 0
79 0 0
79.1 0 0
79.2 0 0
79.3 0 0
79.4 0 0
79.5 0 0
79.6 0 0
79.7 0 0
79.8 0 0
79.9 0 0
80 0 0
80.1 0 0
80.2 0 0
80.3 0 0
80.4 0 0
80.5 0 0
80.6 0 0
80.7 0 0
80.8 0 0
80.9 0 0
81 0 0
81.1 0 0
81.2 0 0
81.3 0 0
81.4 0 0
81.5 0 0
81.6 0 0
81.7 0 0
81.8 0 0
81.9 0 0
82 0 0
82.1 0 0
82.2 0 0
82.3 0 0
82.4 0 0
82.5 0 0
82.6 0 0
82.7 0 0
82.8 0 0
82.9 0 0
83 0 0
83.1 0 0
83.2 0 0
83.3 0 0
83.4 0 0
83.5 0 0
83.6 0 0
83.7 0 0
83.8 0 0
83.9 0 0
84 0 0
84.1 0 0
84.2 0 0
84.3 0 0
84.4 0 0
84.5 0 0
84.6 0 0
84.7 0 0
84.8 0 0
84.9 0 0
85 0 0
85.1 0 0
85.2 0 0
85.3 0 0
85.4 0 0
85.5 0 0
85.6 0 0
85.7 0 0
85.8 0 0
85.9 0 0
86 0 0
86.1 0 0
86.2 0 0
86.3 0 0
86.4 0 0
86.5 0 0
86.6 0 0
86.7 0 0
86.8 0 0
86.9 0 0
87 0 0
87.1 0 0
87.2 0 0
87.3 0 0
87.4 0 0
87.5 0 0
87.6 0 0
87.7 0 0
87.8 0 0
87.9 0 0
88 0 0
88.1 0 0
88.2 0 0
88.3 0 0
88.4 0 0
88.5 0 0
88.6 0 0
88.7 0 0
88.8 0 0
88.9 0 0
89 0 0
89.1 0 0
89.2 0 0
89.3 0 0
89.4 0 0
89.5 0 0
89.6 0 0
89.7 0 0
89.8 0 0
89.9 0 0
90 0 0
90.1 0 0
90.2 0 0
90.3 0 0
90.4 0 0
90.5 0 0
90.6 0 0
90.7 0 0
90.8 0 0
90.9 0 0
91 0 0
91.1 0 0
91.2 0 0
91.3 0 0
91.4 0 0
91.5 0 0
91.6 0 0
91.7 0 0
91.8 0 0
91.9 0 0
92 0 0
92.1 0 0
92.2 0 0
92.3 0 0
92.4 0 0
92.5 0 0
92.6 0 0
92.7 0 0
92.8 0 0
92.9 0 0
93 0 0
93.1 0 0
93.2 0 0
93.3 0 0
93.4 0 0
93.5 0 0
93.6 0 0
93.7 0 0
93.8 0 0
93.9 0 0
94 0 0
94.1 0 0
94.2 0 0
94.3 0 0
94.4 0 0
94.5 0 0
94.6 0 0
94.7 0 0
94.8 0 0
94.9 0 0
95 0 0
95.1 0 0
95.2 0 0
95.3 0 0
95.4 0 0
95.5 0 0
95.6 0 0
95.7 0 0
95.8 0 0
95.9 0 0
96 0 0
96.1 0 0
96.2 0 0
96.3 0 0
96.4 0 0
96.5 0 0
96.6 0 0
96.7 0 0
96.8 0 0
96.9 0 0
97 0 0
97.1 0 0
97.2 0 0
97.3 0 0
97.4 0 0
97.5 0 0
97.6 0 0
97.7 0 0
97.8 0 0
97.9 0 0
98 0 0
98.1 0 0
98.2 0 0
98.3 0 0
98.4 0 0
98.5 0 0
98.6 0 0
98.7 0 0
98.8 0 0
98.9 0 0
99 0 0
99.1 0 0
99.2 0 0
99.3 0 0
99.4 0 0
99.5 0 0
99.6 0 0
99.7 0 0
99.8 0 0
99.9 0 0
100 0 0
100.1 0 0
100.2 0 0
100.3 0 0
100.4 0 0
100.5 0 0
100.6 0 0
100.7 0 0
100.8 0 0
100.9 0 0
101 0 0
101.1 0 0
101.2 0 0
101.3 0 0
101.4 0 0
101.5 0 0
101.6 0 0
101.7 0 0
101.8 0 0
101.9 0 0
102 0 0
102.1 0 0
102.2 0 0
102.3 0 0
102.4 0 0
102.5 0 0
102.6 0 0
102.7 0 0
102.8 0 0
102.9 0 0
103 0 0
103.1 0 0
103.2 0 0
103.3 0 0
103.4 0 0
103.5 0 0
103.6 0 0
103.7 0 0
103.8 0 0
103.9 0 0
104 0 0
104.1 0 0
104.2 0 0
104.3 0 0
104.4 0 0
104.5 0 0
104.6 0 0
104.7 0 0
104.8 0 0
104.9 0 0
105 0 0
105.1 0 0
105.2 0 0
105.3 0 0
105.4 0 0
105.5 0 0
105.6 0 0
105.7 0 0
105.8 0 0
105.9 0 0
106 0 0
106.1 0 0
106.2 0 0
106.3 0 0
106.4 0 0
106.5 0 0
106.6 0 0
106.7 0 0
106.8 0 0
106.9 0 0
107 0 0
107.1 0 0
107.2 0 0
107.3 0 0
107.4 0 0
107.5 0 0
107.6 0 0
107.7 0 0
107.8 0 0
107.9 0 0
108 0 0
108.1 0 0
108.2 0 0
108.3 0 0
108.4 0 0
108.5 0 0
108.6 0 0
108.7 0 0
108.8 0 0
108.9 0 0
109 0 0
109.1 0 0
109.2 0 0
109.3 0 0
109.4 0 0
109.5 0 0
109.6 0 0
109.7 0 0
109.8 0 0
109.9 0 0
110 0 0
110.1 0 0
110.2 0 0
110.3 0 0
110.4 0 0
110.5 0 0
110.6 0 0
110.7 0 0
110.8 0 0
110.9 0 0
111 0 0
111.1 0 0
111.2 0 0
111.3 0 0
111.4 0 0
111.5 0 0
111.6 0 0
111.7 0 0
111.8 0 0
111.9 0 0
112 0 0
[...]
POINT_DATA 83304

SCALARS pressure float 1
LOOKUP_TABLE default
0
0
0
0
0
0
0
0
0
0
0
0
0
0
0
0
0
0
0
0
0
0
0
0
0
0
0
0
0
0
0
0
0
0
0
0
0
0
0
0
0
0
0
0
0
0
0
0
0
0
0
0
0
0
0
0
0
0
0
0
0
0
0
0
0
0
0
0
0
0
0
0
0
0
0
0
0
0
0
0
0
0
0
0
0
0
0
0
0
0
0
0
0
0
0
0
0
0
0
0
0
0
0
0
0
0
0
0
0
0
0
0
0
0
0
0
0
0
0
0
0
0
0
0
0
0
0
0
0
0
0
0
0
0
0
0
0
0
0
0
0
0
0
0
0
0
0
0
0
0
0
0
0
0
0
0
0
0
0
0
0
0
0
0
0
0
0
0
0
0
0
0
0
0
0
0
0
0
0
0
0
0
0
0
0
0
0
0
0
0
0
0
0
0
0
0
0
0
0
0
0
0
0
0
0
0
0
0
0
0
0
0
0
0
0
0
0
0
0
0
0
0
0
0
0
0
0
0
0
0
0
0
0
0
0
0
0
0
0
0
0
0
0
0
0
0
0
0
0
0
0
0
0
0
0
0
0
0
0
0
0
0
0
0
0
0
0
0
0
0
0
0
0
0
0
0
0
0
0
0
0
0
0
0
0
0
0
0
0
0
0
0
0
0
0
0
0
0
0
0
0
0
0
0
0
0
0
0
0
0
0
0
0
0
0
0
0
0
0
0
0
0
0
0
0
0
0
0
0
0
0
0
0
0
0
0
0
0
0
0
0
0
0
0
0
0
0
0
0
0
0
0
0
0
0
0
0
0
0
0
0
0
0
0
0
0
0
0
0
0
0
0
0
0
0
0
0
0
0
0
0
0
0
0
0
0
0
0
0
0
0
0
0
0
0
0
0
0
0
0
0
0
0
0
0
0
0
0
0
0
0
0
0
0
0
0
0
0
0
0
0
0
0
0
0
0
0
0
0
0
0
0
0
0
0
0
0
0
0
0
0
0
0
0
0
0
0
0
0
0
0
0
0
0
0
0
0
0
0
0
0
0
0
0
0
0
0
0
0
0
0
0
0
0
0
0
0
0
0
0
0
0
0
0
0
0
0
0
0
0
0
0
0
0
0
0
0
0
0
0
0
0
0
0
0
0
0
0
0
0
0
0
0
0
0
0
0
0
0
0
0
0
0
0
0
0
0
0
0
0
0
0
0
0
0
0
0
0
0
0
0
0
0
0
0
0
0
0
0
0
0
0
0
0
0
0
0
0
0
0
0
0
0
0
0
0
0
0
0
0
0
0
0
0
0
0
0
0
0
0
0
0
0
0
0
0
0
0
0
0
0
0
0
0
0
0
0
0
0
0
0
0
0
0
0
0
0
0
0
0
0
0
0
0
0
0
0
0
0
0
0
0
0
0
0
0
0
0
0
0
0
0
0
0
0
0
0
0
0
0
0
0
0
0
0
0
0
0
0
0
0
0
0
0
0
0
0
0
0
0
0
0
0
0
0
0
0
0
0
0
0
0
0
0
0
0
0
0
0
0
0
0
0
0
0
0
0
0
0
0
0
0
0
0
0
0
0
0
0
0
0
0
0
0
0
0
0
0
0
0
0
0
0
0
0
0
0
0
0
0
0
0
0
0
0
0
0
0
0
0
0
0
0
0
0
0
0
0
0
0
0
0
0
0
0
0
0
0
0
0
0
0
0
0
0
0
0
0
0
0
0
0
0
0
0
0
0
0
0
0
0
0
0
0
0
0
0
0
0
0
0
0
0
0
0
0
0
0
0
0
0
0
0
0
0
0
0
0
0
0
0
0
0
0
0
0
0
0
0
0
0
0
0
0
0
0
0
0
0
0
0
0
0
0
0
0
0
0
0
0
0
0
0
0
0
0
0
0
0
0
0
0
0
0
0
0
0
0
0
0
0
0
0
0
0
0
0
0
0
0
0
0
0
0
0
0
0
0
0
0
0
0
0
0
0
0
0
0
0
0
0
0
0
0
0
0
0
0
0
0
0
0
0
0
0
0
0
0
0
0
0
0
0
0
0
0
0
0
0
0
0
0
0
0
0
0
0
0
0
0
0
0
0
0
0
0
0
0
0
0
0
0
0
0
0
0
0
0
0
0
0
0
0
0
0
0
0
0
0
0
0
0
0
0
0
0
0
0
0
0
0
0
0
0
0
0
0
0
0
0
0
0
0
0
0
0
0
0
0
0
0
0
0
0
0
0
0
0
0
0
0
0
0
0
0
0
0
0
0
0
0
0
0
0
0
0
0
0
0
0
0
0
0
0
0
0
0
0
0
0
0
0
0
0
0
0
0
0
0
0
0
0
0
0
0
0
0
0
0
0
0
0
0
0
0
0
0
0
0
0
0
0
0
0
0
0
0
0
0
0
0
0
0
0
0
0
0
0
0
0
0
0
0
0
0
0
0
0
0
0
0
0
0
0
0
0
0
0
0
0
0
0
0
0
0
0
0
0
0
0
0
0
0
0
0
0
0
0
0
0
0
0
0
0
0
0
0
0
0
0
0
0
0
0
0
0
0
0
0
0
0
0
0
0
0
0
0
0
0
0
0
0
0
0
0
0
0
0
0
0
0
0
0
0
0
0
0
0
0
0
0
0
0
0
0
0
0
0
0
0
0
0
0
0
0
0
0
0
0
0
0
0
0
0
0
0
0
0
0
0
0
0
0
0
0
0
0
0
0
0
0
0
0
0
0
0
0
0
0
0
0
0
0
0
0
0
0
0
0
0
0
0
0
0
0
0
0
0
0
0
0
0
0
0
0
0
0
0
0
0
0
0
0
0
0
0
0
0
0
0
0
0
0
0
0
0
0
0
0
0
0
0
0
0
0
0
0
0
0
0
0
0
0
0
0
0
0
0
0
0
0
0
0
0
0
0
0
0
0
0
0
0
0
0
0
0
0
0
0
0
0
0
0
0
0
0
0
0
0
0
0
0
0
0
0
0
0
0
0
0
0
0
0
0
0
0
0
0
0
0
0
0
0
0
0
0
0
0
0
0
0
0
0
0
0
0
0
0
0
0
0
0
0
0
0
0
0
0
0
0
0
0
0
0
0
0
0
0
0
0
0
0
0
0
0
0
0
0
0
0
0
0
0
0
0
0
0
0
0
0
0
0
0
0
0
0
0
0
0
0
0
0
0
0
0
0
0
0
0
0
0
0
0
0
0
0
0
0
0
0
0
0
0
0
0
0
0
0
0
0
0
0
0
0
0
0
0
0
0
0
0
0
0
0
0
0
0
0
0
0
0
0
0
0
0
0
0
0
0
0
0
0
0
0
0
0
0
0
0
0
0
0
0
0
0
0
0
0
0
0
0
0
0
0
0
0
0
0
0
0
0
0
0
0
0
0
0
0
0
0
0
0
0
0
0
0
0
0
0
0
0
0
0
0
0
0
0
0
0
0
0
0
0
0
0
0
0
0
0
0
0
0
0
0
0
0
0
0
0
0
0
0
0
0
0
0
0
0
0
0
0
0
0
0
0
0
0
0
0
0
0
0
0
0
0
0
0
0
0
0
0
0
0
0
0
0
0
0
0
0
0
0
0
0
0
0
0
0
0
0
0
0
0
0
0
0
0
0
0
0
0
0
0
0.0776415
0.052903
0.0436505
0.0357426
0.03048
0.0271088
0.0248019
0.023116
0.0218008
0.0207277
0.0198235
0.0190436
0.0183596
0.0177519
0.0172066
0.0167134
0.0162643
0.0158532
0.0154749
0.0151254
0.0148012
0.0144993
0.0142174
0.0139533
0.0137051
0.0134714
0.0132506
0.0130416
0.0128434
0.0126549
0.0124753
0.0123039
0.0121401
0.0119833
0.0118328
0.0116884
0.0115494
0.0114156
0.0112866
0.0111621
0.0110418
0.0109254
0.0108128
0.0107037
0.0105979
0.0104952
0.0103955
0.0102987
0.0102045
0.0101129
0.0100238
0.00993702
0.0098525
0.00977015
0.00968989
0.00961163
0.00953532
0.00946088
0.00938825
0.00931738
0.00924821
0.0091807
0.0091148
0.00905046
0.00898765
0.00892632
0.00886645
0.00880799
0.00875091
0.00869519
0.00864079
0.00858768
0.00853584
0.00848524
0.00843585
0.00838766
0.00834062
0.00829473
0.00824996
0.00820629
0.00816369
0.00812215
0.00808163
0.00804213
0.00800362
0.00796608
0.0079295
0.00789386
0.00785914
0.00782533
0.00779241
0.00776037
0.0077292
0.00769888
0.0076694
0.00764074
0.00761288
0.0075858
0.00755947
0.00753385
0.00750891
0.0074846
0.00746087
0.00743769
0.007415
0.00739277
0.00737098
0.00734961
0.00732868
0.00730823
0.00728833
0.00726906
0.00725054
0.00723289
0.00721622
0.00720064
0.0071862
0.00717288
0.00716058
0.0071491
0.00713811
0.00712718
0.0071158
0.0071034
0.00708946
0.00707355
0.00705547
0.00703537
0.00701382
0.00699199
0.00697165
0.00695521
0.00694562
0.00694622
0.00696045
0.00699138
0.00704124
0.00711075
0.00719844
0.00729996
0.00740747
0.00750916
0.00758903
0.00762708
0.00759988
0.00748176
0.00724667
0.00687077
0.00633589
0.00563371
0.00477062
0.00377277
0.00269063
0.00160217
0.000613043
-0.00014756
-0.000535226
-0.000403174
0.000382514
0.00192819
0.00430081
0.00752039
0.0115604
0.0163509
0.0217827
0.0277217
0.0340185
0.0405073
0.0470085
0.0533546
0.0593941
0.0649573
0.0698483
0.0739051
0.0770629
0.0793426
0.0807816
0.0813906
0.081165
0.0801203
0.0783095
0.0758191
0.0727548
0.06923
0.0653589
0.0612513
0.0570098
0.052727
0.0484832
0.0443448
0.0403648
0.0365822
0.0330243
0.0297075
0.0266396
0.023821
0.021247
0.0189083
0.0167931
0.0148878
0.0131774
0.0116467
0.0102806
0.00906428
0.00798359
0.00702522
0.00617671
0.00542659
0.0047643
0.00418024
0.00366571
0.00321286
0.00281461
0.00246466
0.00215735
0.00188765
0.00165109
0.00144371
0.001262
0.00110284
0.000963485
0.000841524
0.00073482
0.000641495
0.000559895
0.000488568
0.000426237
0.000371783
0.00032422
0.000282687
0.000246428
0.000214779
0.000187161
0.000163065
0.000142046
0.000123715
0.000107731
9.37968e-05
8.16508e-05
7.10659e-05
6.18429e-05
5.38082e-05
4.68099e-05
4.07152e-05
3.54084e-05
3.07885e-05
2.67671e-05
2.32674e-05
2.02221e-05
1.75727e-05
1.52681e-05
1.32637e-05
1.15207e-05
1.00052e-05
8.68779e-06
7.54272e-06
6.5476e-06
5.68293e-06
4.93172e-06
4.27918e-06
3.71245e-06
3.2203e-06
2.79299e-06
2.42204e-06
2.10005e-06
1.82061e-06
1.57813e-06
1.36774e-06
1.18524e-06
1.02695e-06
8.89668e-07
7.70633e-07
6.67431e-07
5.7797e-07
5.00431e-07
4.33234e-07
3.75009e-07
3.24565e-07
2.80868e-07
2.43021e-07
2.10245e-07
1.81866e-07
1.57295e-07
1.36026e-07
1.17617e-07
1.01686e-07
8.79012e-08
7.59748e-08
6.56579e-08
5.67344e-08
4.90172e-08
4.23442e-08
3.65747e-08
3.15873e-08
2.72763e-08
2.35506e-08
2.03312e-08
1.75495e-08
1.51465e-08
1.30708e-08
1.12781e-08
9.72999e-09
8.3933e-09
7.23931e-09
6.24317e-09
5.3834e-09
4.64143e-09
4.0012e-09
3.44884e-09
2.97235e-09
2.56136e-09
2.20691e-09
1.90126e-09
1.63773e-09
1.41055e-09
1.21472e-09
1.04594e-09
9.00499e-10
7.75179e-10
6.67213e-10
5.74209e-10
4.94104e-10
4.25118e-10
3.65716e-10
3.14573e-10
2.70546e-10
2.32651e-10
2.00037e-10
1.71972e-10
1.47825e-10
1.27051e-10
1.09182e-10
9.38139e-11
8.05979e-11
6.92343e-11
5.94649e-11
5.1067e-11
4.38491e-11
3.76463e-11
3.23164e-11
2.77373e-11
2.38037e-11
2.04251e-11
1.75237e-11
1.50322e-11
1.28932e-11
1.1057e-11
9.48099e-12
8.12845e-12
6.96787e-12
5.97214e-12
5.11796e-12
4.38532e-12
3.757e-12
3.21822e-12
2.75628e-12
2.36028e-12
2.02085e-12
1.72993e-12
1.48064e-12
1.26703e-12
1.08404e-12
9.27305e-13
7.93109e-13
6.78262e-13
5.8003e-13
4.96059e-13
4.24318e-13
3.63039e-13
3.1069e-13
2.65938e-13
2.27637e-13
1.948e-13
1.66586e-13
1.42265e-13
1.21205e-13
1.02858e-13
8.67761e-14
7.26312e-14
6.02552e-14
4.9655e-14
4.09896e-14
3.44883e-14
3.03142e-14
2.84003e-14
2.83121e-14
2.91958e-14
2.98615e-14
2.90126e-14
2.55839e-14
1.91014e-14
9.9482e-15
-5.72077e-16
-1.04384e-14
-1.73684e-14
-1.94307e-14
-1.5651e-14
-6.42683e-15
6.39635e-15
1.98534e-14
3.05376e-14
3.54674e-14
3.29094e-14
2.29225e-14
7.45085e-15
-1.00839e-14
-2.56021e-14
-3.53879e-14
-3.70432e-14
-3.01153e-14
-1.62271e-14
1.32505e-15
1.83997e-14
3.10412e-14
3.64433e-14
3.35987e-14
2.34785e-14
8.71416e-15
-7.11362e-15
-2.03807e-14
-2.82815e-14
-2.94356e-14
-2.41079e-14
-1.40171e-14
-1.81266e-15
9.62164e-15
1.78552e-14
2.14225e-14
2.00557e-14
1.46132e-14
6.7542e-15
-1.532e-15
-8.41463e-15
-1.26106e-14
-1.35967e-14
-1.16204e-14
-7.5338e-15
-2.51696e-15
2.23168e-15
5.76015e-15
7.53102e-15
7.46982e-15
5.90307e-15
3.41858e-15
6.92933e-16
-1.66949e-15
-3.2523e-15
-3.88043e-15
-3.61106e-15
-2.67617e-15
-1.39896e-15
-1.07472e-16
9.35151e-16
1.57202e-15
1.76261e-15
1.56607e-15
1.10716e-15
5.35918e-16
-8.89422e-18
-4.25691e-16
-6.62222e-16
-7.14654e-16
-6.16836e-16
-4.24369e-16
-1.98054e-16
9.64706e-18
1.63089e-16
2.46347e-16
2.61371e-16
2.22987e-16
1.52592e-16
7.21724e-17
-2.01882e-19
-5.28938e-17
-8.12453e-17
-8.65801e-17
-7.42905e-17
-5.16476e-17
-2.58547e-17
-2.66605e-18
1.43145e-17
2.37094e-17
2.59846e-17
2.2818e-17
1.64185e-17
8.94397e-18
2.10394e-18
-3.03051e-18
-6.03563e-18
-7.01635e-18
-6.42261e-18
-4.85662e-18
-2.91151e-18
-1.06262e-18
3.84223e-19
1.29558e-18
1.67974e-18
1.6391e-18
1.32037e-18
8.72765e-19
4.19557e-19
4.3916e-20
-2.12983e-19
-3.45387e-19
-3.72016e-19
-3.24298e-19
-2.36265e-19
-1.37451e-19
-4.9077e-20
1.69099e-20
5.67513e-20
7.2675e-20
7.03749e-20
5.67525e-20
3.82451e-20
1.98387e-20
4.69928e-21
-5.73231e-21
-1.13682e-20
-1.29938e-20
-1.18072e-20
-9.05448e-21
-5.79152e-21
-2.76893e-21
-4.14165e-22
1.12201e-21
1.88739e-21
2.04463e-21
1.79914e-21
1.34687e-21
8.43929e-22
3.94847e-22
5.44383e-23
-1.62338e-22
-2.67406e-22
-2.86987e-22
-2.51476e-22
-1.8858e-22
-1.19644e-22
-5.85398e-23
-1.22789e-23
1.74276e-23
3.23302e-23
3.59481e-23
3.22581e-23
2.48379e-23
1.64263e-23
8.806e-24
2.8971e-24
-1.04203e-24
-3.18452e-24
-3.92738e-24
-3.73241e-24
-3.0225e-24
-2.12784e-24
-1.27021e-24
-5.71996e-25
-7.79814e-26
2.19156e-25
3.5552e-25
3.77829e-25
3.31245e-25
2.52681e-25
1.68331e-25
9.40371e-26
3.71885e-26
-8.10739e-28
-2.21701e-26
-3.07833e-26
-3.08669e-26
-2.61428e-26
-1.94592e-26
-1.27202e-26
-6.99834e-27
-2.73212e-27
6.28022e-29
1.60801e-27
2.22161e-27
2.22488e-27
1.89026e-27
1.42041e-27
9.47849e-28
5.45789e-28
2.43521e-28
4.1733e-29
-7.46159e-29
-1.26807e-28
-1.36224e-28
-1.21002e-28
-9.47203e-29
-6.64058e-29
-4.12406e-29
-2.15409e-29
-7.72734e-30
8.62002e-31
5.36829e-30
7.01579e-30
6.88751e-30
5.82716e-30
4.42365e-30
3.04169e-30
1.87209e-30
9.849e-31
3.75743e-31
1.54047e-33
-1.94814e-31
-2.69363e-31
-2.69312e-31
-2.3027e-31
-1.76534e-31
-1.22924e-31
-7.7138e-32
-4.20453e-32
-1.75828e-32
-2.1767e-33
6.29929e-33
9.94791e-33
1.05538e-32
9.47864e-33
7.66862e-33
5.71937e-33
3.96009e-33
2.53553e-33
1.47472e-33
7.42878e-34
2.77261e-34
9.43407e-36
-1.22459e-34
-1.6837e-34
-1.65294e-34
-1.3855e-34
-1.04061e-34
-7.08204e-35
-4.30994e-35
-2.22186e-35
-7.84625e-36
1.12175e-36
6.0152e-36
8.08646e-36
8.37103e-36
7.64914e-36
6.46284e-36
5.1582e-36
3.93383e-36
2.88585e-36
2.04469e-36
1.40262e-36
9.32958e-37
6.02322e-37
3.77843e-37
2.30779e-37
1.37869e-37
8.13597e-38
4.8346e-38
2.98568e-38
1.99196e-38
1.47338e-38
1.19994e-38
1.04064e-38
9.26631e-39
8.25924e-39
7.26833e-39
6.27719e-39
5.31018e-39
4.40065e-39
3.57617e-39
2.85351e-39
2.23866e-39
1.72904e-39
1.31626e-39
9.88673e-40
7.33413e-40
5.37761e-40
3.90025e-40
2.79989e-40
1.99062e-40
1.40234e-40
9.79358e-41
6.78312e-41
4.66102e-41
3.17864e-41
2.15201e-41
1.44681e-41
9.66164e-42
6.41014e-42
4.22623e-42
2.76946e-42
1.80415e-42
1.16858e-42
7.52698e-43
4.82198e-43
3.07278e-43
1.94803e-43
1.22876e-43
7.71259e-44
4.81767e-44
2.99518e-44
1.85353e-44
1.14184e-44
7.00288e-45
4.27612e-45
2.59991e-45
1.5741e-45
9.4908e-46
5.69901e-46
3.40839e-46
2.03038e-46
1.20479e-46
7.12155e-47
4.19362e-47
2.46024e-47
1.43801e-47
8.37457e-48
4.85958e-48
2.80989e-48
1.61903e-48
9.29629e-49
5.31953e-49
3.03362e-49
1.72421e-49
9.76731e-50
5.51481e-50
3.10365e-50
1.74106e-50
9.73572e-51
5.42686e-51
3.01557e-51
1.67048e-51
9.22522e-52
5.07912e-52
2.78797e-52
1.52576e-52
8.32514e-53
4.52916e-53
2.45683e-53
1.32884e-53
7.1667e-54
3.85413e-54
2.06682e-54
1.10524e-54
5.89383e-55
3.13426e-55
1.66217e-55
8.79086e-56
4.63667e-56
2.439e-56
1.27953e-56
6.6948e-57
3.49362e-57
1.81833e-57
9.43921e-58
4.88734e-58
2.524e-58
1.30015e-58
6.68025e-59
3.42367e-59
1.75024e-59
8.92518e-60
4.54e-60
2.30367e-60
1.16604e-60
5.88773e-61
2.96568e-61
1.49021e-61
7.47012e-62
3.73565e-62
1.86368e-62
9.27567e-63
4.6057e-63
2.28153e-63
1.12757e-63
5.55971e-64
2.73499e-64
1.34234e-64
6.57311e-65
3.21138e-65
1.5654e-65
7.61344e-66
3.69453e-66
1.78881e-66
8.6418e-67
4.16563e-67
2.00354e-67
9.61523e-68
4.60438e-68
2.20007e-68
1.04896e-68
4.99051e-69
2.36916e-69
1.12231e-69
5.30525e-70
2.50251e-70
1.17795e-70
5.53299e-71
2.59347e-71
1.2131e-71
5.66245e-72
2.63762e-72
1.22609e-72
5.6877e-73
2.63306e-73
1.21646e-73
5.60851e-74
2.58058e-74
1.18498e-74
5.43035e-75
2.48355e-75
1.13358e-75
5.16372e-76
2.34754e-76
1.06513e-76
4.82321e-77
2.1798e-77
9.83211e-78
4.42618e-78
1.98869e-78
8.9179e-79
3.99135e-79
1.78295e-79
7.94927e-80
3.5374e-80
1.57113e-80
6.9649e-81
3.08173e-81
1.36099e-81
5.99926e-82
2.63952e-82
1.15915e-82
5.08097e-83
2.22303e-83
9.70818e-84
4.23184e-84
1.84128e-84
7.99674e-85
3.46666e-85
1.50009e-85
6.47936e-86
2.79357e-86
1.20226e-86
5.16485e-87
2.2148e-87
9.48052e-88
4.05091e-88
1.72782e-88
7.35653e-89
3.12663e-89
1.32652e-89
5.61801e-90
2.37514e-90
1.00238e-90
4.22298e-91
1.77602e-91
7.45623e-92
3.12491e-92
1.30739e-92
5.4604e-93
2.27664e-93
9.47591e-94
3.93734e-94
1.63322e-94
6.7631e-95
2.79582e-95
1.15382e-95
4.7537e-96
1.95521e-96
8.02836e-97
3.29102e-97
1.34682e-97
5.50253e-98
2.24436e-98
9.13908e-99
3.71529e-99
1.50788e-99
6.10975e-100
2.47154e-100
9.98157e-101
4.02457e-101
1.62006e-101
6.51085e-102
2.61239e-102
1.04649e-102
4.18532e-103
1.67118e-103
6.6622e-104
2.65165e-104
1.05371e-104
4.1805e-105
1.65594e-105
6.54894e-106
2.58588e-106
1.01943e-106
4.01256e-107
1.57689e-107
6.18724e-108
2.42389e-108
9.48085e-109
3.70258e-109
1.44372e-109
5.62068e-110
2.18484e-110
8.47967e-111
3.28599e-111
1.27141e-111
4.91174e-112
1.89461e-112
7.29689e-113
2.80603e-113
1.07742e-113
4.13063e-114
1.58121e-114
6.0437e-115
2.30654e-115
8.78946e-116
3.34434e-116
1.27059e-116
4.82003e-117
1.82576e-117
6.9054e-118
2.60788e-118
9.8342e-119
3.70294e-119
1.39223e-119
5.22675e-120
1.95936e-120
7.33423e-121
2.74131e-121
1.02311e-121
3.81289e-122
1.4189e-122
5.27246e-123
1.95634e-123
7.24844e-124
2.68173e-124
9.90734e-125
3.65487e-125
1.34636e-125
4.95252e-126
1.81914e-126
6.67245e-127
2.4439e-127
8.93841e-128
3.26452e-128
1.19058e-128
4.33595e-129
1.57686e-129
5.72649e-130
2.07669e-130
7.5204e-131
2.71957e-131
9.82086e-132
3.54153e-132
1.27534e-132
4.58619e-133
1.64692e-133
5.90597e-134
2.11498e-134
7.56344e-135
2.70104e-135
9.63259e-136
3.43049e-136
1.22003e-136
4.33303e-137
1.53679e-137
5.44307e-138
1.92521e-138
6.80021e-139
2.39869e-139
8.44957e-140
2.9724e-140
1.04422e-140
3.66341e-141
1.2835e-141
4.49076e-142
1.56914e-142
5.47542e-143
1.90806e-143
6.64025e-144
2.3078e-144
8.00997e-145
2.77642e-145
9.61088e-146
3.32249e-146
1.14707e-146
3.95494e-147
1.36181e-147
4.68297e-148
1.60825e-148
5.5159e-149
1.88933e-149
6.46296e-150
2.20794e-150
7.53312e-151
2.56683e-151
8.7348e-152
2.96856e-152
1.00757e-152
3.41539e-153
1.15623e-153
3.90921e-154
1.32e-154
4.45141e-155
1.49922e-155
5.04283e-156
1.69406e-156
5.68363e-157
1.90445e-157
6.37322e-158
2.13008e-158
7.11018e-159
2.37036e-159
7.89219e-160
2.62441e-160
8.71599e-161
2.89104e-161
9.57733e-162
3.16876e-162
1.0471e-162
3.45576e-163
1.13908e-163
3.74992e-164
1.23296e-164
4.04887e-165
1.32794e-165
4.34995e-166
1.42315e-166
4.65028e-167
1.51765e-167
4.94681e-168
1.61044e-168
5.23636e-169
1.70052e-169
5.51567e-170
1.78683e-170
5.78145e-171
1.86835e-171
6.03048e-172
1.94408e-172
6.25964e-173
2.01306e-173
6.46601e-174
2.07439e-174
6.64688e-175
2.12726e-175
6.79986e-176
2.17098e-176
6.92291e-177
2.20496e-177
7.0144e-178
2.22875e-178
7.07312e-179
2.24203e-179
7.09832e-180
2.24466e-180
7.08974e-181
2.23663e-181
7.04761e-182
2.21807e-182
6.97259e-183
2.18928e-183
6.86585e-184
2.15068e-184
6.72895e-185
2.10285e-185
6.56386e-186
2.04645e-186
6.37287e-187
1.98226e-187
6.15858e-188
1.91114e-188
5.92381e-189
1.83402e-189
5.67156e-190
1.75185e-190
5.40492e-191
1.66563e-191
5.12705e-192
1.57636e-192
4.84109e-193
1.48501e-193
4.55009e-194
1.39255e-194
4.257e-195
1.29987e-195
3.96461e-196
1.20783e-196
3.67548e-197
1.1172e-197
3.39196e-198
1.02868e-198
3.11613e-199
9.42888e-200
2.84979e-200
8.60351e-201
2.59447e-201
7.81505e-202
2.3514e-202
7.06697e-203
2.12155e-203
6.36188e-204
1.9056e-204
5.70154e-205
1.704e-205
5.08698e-206
1.51694e-206
4.51848e-207
1.34442e-207
3.99572e-208
1.18624e-208
3.5178e-209
1.04205e-209
3.08339e-210
9.11355e-211
2.69072e-211
7.93546e-212
2.33775e-212
6.87936e-213
2.02219e-213
5.93771e-214
1.74158e-214
5.1026e-215
1.49337e-215
4.36585e-216
1.27496e-216
3.71925e-217
1.08378e-217
3.15469e-218
9.17279e-219
2.66426e-219
7.73006e-220
2.24037e-220
6.48618e-221
1.87582e-221
5.41908e-222
1.56385e-222
4.50813e-223
1.29818e-223
3.73427e-224
1.07304e-224
3.08006e-225
8.83162e-226
2.52964e-226
7.23796e-227
2.06877e-227
5.90671e-228
1.68469e-228
4.79991e-229
1.36612e-229
3.88404e-230
1.10312e-230
3.12969e-231
8.86999e-232
2.51124e-232
7.10229e-233
2.00656e-233
5.66305e-234
1.59659e-234
4.4966e-235
1.26509e-235
3.55552e-236
9.98236e-237
2.7997e-237
7.84401e-238
2.1954e-238
6.13816e-239
1.7144e-239
4.78342e-240
1.33326e-240
3.7123e-241
1.03258e-241
2.86916e-242
7.96414e-243
2.2084e-243
6.11744e-244
1.69284e-244
4.67969e-245
1.29233e-245
3.56523e-246
9.82553e-247
2.70509e-247
7.43987e-248
2.04412e-248
5.61055e-249
1.53838e-249
4.21387e-250
1.15308e-250
3.15206e-251
8.60781e-252
2.34829e-252
6.39988e-253
1.74243e-253
4.73914e-254
1.28768e-254
3.49526e-255
9.47797e-256
2.56753e-256
6.94832e-257
1.8785e-257
5.07348e-258
1.36889e-258
3.68975e-259
9.93558e-260
2.67274e-260
7.18272e-261
1.92836e-261
5.172e-262
1.38579e-262
3.70942e-263
9.91938e-264
2.64993e-264
7.07221e-265
1.88559e-265
5.02241e-266
1.33644e-266
3.55271e-267
9.43502e-268
2.50323e-268
6.63486e-269
1.75687e-269
4.64751e-270
1.22822e-270
3.24273e-271
8.55304e-272
2.25376e-272
5.93295e-273
1.56032e-273
4.09952e-274
1.07605e-274
2.82169e-275
7.39207e-276
1.93465e-276
5.05848e-277
1.32135e-277
3.44824e-278
8.98996e-279
2.34153e-279
6.09292e-280
1.58392e-280
4.11362e-281
1.06733e-281
2.76668e-282
7.16476e-283
1.85366e-283
4.79119e-284
1.23721e-284
3.19174e-285
8.22621e-286
2.11816e-286
5.44884e-287
1.40035e-287
3.59551e-288
9.22296e-289
2.36358e-289
6.05144e-290
1.54788e-290
3.95554e-291
1.00987e-291
2.57582e-292
6.56381e-293
1.67105e-293
4.25025e-294
1.08002e-294
2.74184e-295
6.95419e-296
1.76216e-296
4.46104e-297
1.12829e-297
2.85104e-298
7.19745e-299
1.81531e-299
4.57423e-300
1.15155e-300
2.8963e-301
7.27781e-302
1.82707e-302
4.58257e-303
1.14832e-303
2.87482e-304
7.19052e-305
1.79684e-305
4.48598e-306
1.11894e-306
2.7884e-307
6.94233e-308
1.72686e-308
4.2915e-309
1.06553e-309
2.64315e-310
6.5506e-311
1.62198e-311
4.01246e-312
9.91702e-313
2.44881e-313
6.04136e-314
1.48908e-314
3.66698e-315
9.02201e-316
2.21771e-316
5.44643e-317
1.33637e-317
3.27603e-318
8.02377e-319
1.96352e-319
4.80084e-320
1.17291e-320
2.86064e-321
6.96633e-322
1.67982e-322
3.95253e-323
0
0
0
0
0
0
0
0
0
0
0
0
0
0
0
0
0
0
0
0
0
0
0
0
0
0
0
0
0
0
0
0
0
0
0
0
0
0
0
0
0
0
0
0
0
0
0
0
0
0
0
0
0
0
0
0
0
0
0
0
0
0
0
0
0
0
0
0
0
0
0
0
0
0
0
0
0
0
0
0
0
0
0
0
0
0
0
0
0
0
0
0
0
0
0
0
0
0
0
0
0
0
0
0
0
0
0
0
0
0
0
0
0
0
0
0
0
0
0
0
0
0
0
0
0
0
0
0
0
0
0
0
0
0
0
0
0
0
0
0
0
0
0
0
0
0
0
0
0
0
0
0
0
0
0
0
0
0
0
0
0
0
0
0
0
0
0
0
0
0
0
0
0
0
0
0
0
0
0
0
0
0
0
0
0
0
0
0
0
0
0
0
0
0
0
0
0
0
0
0
0
0
0
0
0
0
0
0
0
0
0
0
0
0
0
0
0
0
0
0
0
0
0
0
0
0
0
0
0
0
0
0
0
0
0
0
0
0
0
0
0
0
0
0
0
0
0
0
0
0
0
0
0
0
0
0
0
0
0
0
0
0
0
0
0
0
0
0
0
0
0
0
0
0
0
0
0
0
0
0
0
0
0
0
0
0
0
0
0
0
0
0
0
0
0.062787
0.0345542
0.0299574
0.025277
0.0221391
0.0200069
0.0184495
0.0172639
0.0163155
0.0155312
0.0148652
0.0142884
0.013781
0.0133294
0.0129237
0.0125563
0.0122216
0.0119149
0.0116326
0.0113716
0.0111293
0.0109037
0.0106929
0.0104953
0.0103096
0.0101346
0.00996925
0.00981273
0.00966419
0.00952296
0.0093884
0.00925997