# vtk DataFile Version 2.0
FlowField
ASCII
DATASET STRUCTURED_GRID
DIMENSIONS 1602 1 52
POINTS 83304 float
0 0 0
0.1 0 0
0.2 0 0
0.3 0 0
0.4 0 0
0.5 0 0
0.6 0 0
0.7 0 0
0.8 0 0
0.9 0 0
1 0 0
1.1 0 0
1.2 0 0
1.3 0 0
1.4 0 0
1.5 0 0
1.6 0 0
1.7 0 0
1.8 0 0
1.9 0 0
2 0 0
2.1 0 0
2.2 0 0
2.3 0 0
2.4 0 0
2.5 0 0
2.6 0 0
2.7 0 0
2.8 0 0
2.9 0 0
3 0 0
3.1 0 0
3.2 0 0
3.3 0 0
3.4 0 0
3.5 0 0
3.6 0 0
3.7 0 0
3.8 0 0
3.9 0 0
4 0 0
4.1 0 0
4.2 0 0
4.3 0 0
4.4 0 0
4.5 0 0
4.6 0 0
4.7 0 0
4.8 0 0
4.9 0 0
5 0 0
5.1 0 0
5.2 0 0
5.3 0 0
5.4 0 0
5.5 0 0
5.6 0 0
5.7 0 0
5.8 0 0
5.9 0 0
6 0 0
6.1 0 0
6.2 0 0
6.3 0 0
6.4 0 0
6.5 0 0
6.6 0 0
6.7 0 0
6.8 0 0
6.9 0 0
7 0 0
7.1 0 0
7.2 0 0
7.3 0 0
7.4 0 0
7.5 0 0
7.6 0 0
7.7 0 0
7.8 0 0
7.9 0 0
8 0 0
8.1 0 0
8.2 0 0
8.3 0 0
8.4 0 0
8.5 0 0
8.6 0 0
8.7 0 0
8.8 0 0
8.9 0 0
9 0 0
9.1 0 0
9.2 0 0
9.3 0 0
9.4 0 0
9.5 0 0
9.6 0 0
9.7 0 0
9.8 0 0
9.9 0 0
10 0 0
10.1 0 0
10.2 0 0
10.3 0 0
10.4 0 0
10.5 0 0
10.6 0 0
10.7 0 0
10.8 0 0
10.9 0 0
11 0 0
11.1 0 0
11.2 0 0
11.3 0 0
11.4 0 0
11.5 0 0
11.6 0 0
11.7 0 0
11.8 0 0
11.9 0 0
12 0 0
12.1 0 0
12.2 0 0
12.3 0 0
12.4 0 0
12.5 0 0
12.6 0 0
12.7 0 0
12.8 0 0
12.9 0 0
13 0 0
13.1 0 0
13.2 0 0
13.3 0 0
13.4 0 0
13.5 0 0
13.6 0 0
13.7 0 0
13.8 0 0
13.9 0 0
14 0 0
14.1 0 0
14.2 0 0
14.3 0 0
14.4 0 0
14.5 0 0
14.6 0 0
14.7 0 0
14.8 0 0
14.9 0 0
15 0 0
15.1 0 0
15.2 0 0
15.3 0 0
15.4 0 0
15.5 0 0
15.6 0 0
15.7 0 0
15.8 0 0
15.9 0 0
16 0 0
16.1 0 0
16.2 0 0
16.3 0 0
16.4 0 0
16.5 0 0
16.6 0 0
16.7 0 0
16.8 0 0
16.9 0 0
17 0 0
17.1 0 0
17.2 0 0
17.3 0 0
17.4 0 0
17.5 0 0
17.6 0 0
17.7 0 0
17.8 0 0
17.9 0 0
18 0 0
18.1 0 0
18.2 0 0
18.3 0 0
18.4 0 0
18.5 0 0
18.6 0 0
18.7 0 0
18.8 0 0
18.9 0 0
19 0 0
19.1 0 0
19.2 0 0
19.3 0 0
19.4 0 0
19.5 0 0
19.6 0 0
19.7 0 0
19.8 0 0
19.9 0 0
20 0 0
20.1 0 0
20.2 0 0
20.3 0 0
20.4 0 0
20.5 0 0
20.6 0 0
20.7 0 0
20.8 0 0
20.9 0 0
21 0 0
21.1 0 0
21.2 0 0
21.3 0 0
21.4 0 0
21.5 0 0
21.6 0 0
21.7 0 0
21.8 0 0
21.9 0 0
22 0 0
22.1 0 0
22.2 0 0
22.3 0 0
22.4 0 0
22.5 0 0
22.6 0 0
22.7 0 0
22.8 0 0
22.9 0 0
23 0 0
23.1 0 0
23.2 0 0
23.3 0 0
23.4 0 0
23.5 0 0
23.6 0 0
23.7 0 0
23.8 0 0
23.9 0 0
24 0 0
24.1 0 0
24.2 0 0
24.3 0 0
24.4 0 0
24.5 0 0
24.6 0 0
24.7 0 0
24.8 0 0
24.9 0 0
25 0 0
25.1 0 0
25.2 0 0
25.3 0 0
25.4 0 0
25.5 0 0
25.6 0 0
25.7 0 0
25.8 0 0
25.9 0 0
26 0 0
26.1 0 0
26.2 0 0
26.3 0 0
26.4 0 0
26.5 0 0
26.6 0 0
26.7 0 0
26.8 0 0
26.9 0 0
27 0 0
27.1 0 0
27.2 0 0
27.3 0 0
27.4 0 0
27.5 0 0
27.6 0 0
27.7 0 0
27.8 0 0
27.9 0 0
28 0 0
28.1 0 0
28.2 0 0
28.3 0 0
28.4 0 0
28.5 0 0
28.6 0 0
28.7 0 0
28.8 0 0
28.9 0 0
29 0 0
29.1 0 0
29.2 0 0
29.3 0 0
29.4 0 0
29.5 0 0
29.6 0 0
29.7 0 0
29.8 0 0
29.9 0 0
30 0 0
30.1 0 0
30.2 0 0
30.3 0 0
30.4 0 0
30.5 0 0
30.6 0 0
30.7 0 0
30.8 0 0
30.9 0 0
31 0 0
31.1 0 0
31.2 0 0
31.3 0 0
31.4 0 0
31.5 0 0
31.6 0 0
31.7 0 0
31.8 0 0
31.9 0 0
32 0 0
32.1 0 0
32.2 0 0
32.3 0 0
32.4 0 0
32.5 0 0
32.6 0 0
32.7 0 0
32.8 0 0
32.9 0 0
33 0 0
33.1 0 0
33.2 0 0
33.3 0 0
33.4 0 0
33.5 0 0
33.6 0 0
33.7 0 0
33.8 0 0
33.9 0 0
34 0 0
34.1 0 0
34.2 0 0
34.3 0 0
34.4 0 0
34.5 0 0
34.6 0 0
34.7 0 0
34.8 0 0
34.9 0 0
35 0 0
35.1 0 0
35.2 0 0
35.3 0 0
35.4 0 0
35.5 0 0
35.6 0 0
35.7 0 0
35.8 0 0
35.9 0 0
36 0 0
36.1 0 0
36.2 0 0
36.3 0 0
36.4 0 0
36.5 0 0
36.6 0 0
36.7 0 0
36.8 0 0
36.9 0 0
37 0 0
37.1 0 0
37.2 0 0
37.3 0 0
37.4 0 0
37.5 0 0
37.6 0 0
37.7 0 0
37.8 0 0
37.9 0 0
38 0 0
38.1 0 0
38.2 0 0
38.3 0 0
38.4 0 0
38.5 0 0
38.6 0 0
38.7 0 0
38.8 0 0
38.9 0 0
39 0 0
39.1 0 0
39.2 0 0
39.3 0 0
39.4 0 0
39.5 0 0
39.6 0 0
39.7 0 0
39.8 0 0
39.9 0 0
40 0 0
40.1 0 0
40.2 0 0
40.3 0 0
40.4 0 0
40.5 0 0
40.6 0 0
40.7 0 0
40.8 0 0
40.9 0 0
41 0 0
41.1 0 0
41.2 0 0
41.3 0 0
41.4 0 0
41.5 0 0
41.6 0 0
41.7 0 0
41.8 0 0
41.9 0 0
42 0 0
42.1 0 0
42.2 0 0
42.3 0 0
42.4 0 0
42.5 0 0
42.6 0 0
42.7 0 0
42.8 0 0
42.9 0 0
43 0 0
43.1 0 0
43.2 0 0
43.3 0 0
43.4 0 0
43.5 0 0
43.6 0 0
43.7 0 0
43.8 0 0
43.9 0 0
44 0 0
44.1 0 0
44.2 0 0
44.3 0 0
44.4 0 0
44.5 0 0
44.6 0 0
44.7 0 0
44.8 0 0
44.9 0 0
45 0 0
45.1 0 0
45.2 0 0
45.3 0 0
45.4 0 0
45.5 0 0
45.6 0 0
45.7 0 0
45.8 0 0
45.9 0 0
46 0 0
46.1 0 0
46.2 0 0
46.3 0 0
46.4 0 0
46.5 0 0
46.6 0 0
46.7 0 0
46.8 0 0
46.9 0 0
47 0 0
47.1 0 0
47.2 0 0
47.3 0 0
47.4 0 0
47.5 0 0
47.6 0 0
47.7 0 0
47.8 0 0
47.9 0 0
48 0 0
48.1 0 0
48.2 0 0
48.3 0 0
48.4 0 0
48.5 0 0
48.6 0 0
48.7 0 0
48.8 0 0
48.9 0 0
49 0 0
49.1 0 0
49.2 0 0
49.3 0 0
49.4 0 0
49.5 0 0
49.6 0 0
49.7 0 0
49.8 0 0
49.9 0 0
50 0 0
50.1 0 0
50.2 0 0
50.3 0 0
50.4 0 0
50.5 0 0
50.6 0 0
50.7 0 0
50.8 0 0
50.9 0 0
51 0 0
51.1 0 0
51.2 0 0
51.3 0 0
51.4 0 0
51.5 0 0
51.6 0 0
51.7 0 0
51.8 0 0
51.9 0 0
52 0 0
52.1 0 0
52.2 0 0
52.3 0 0
52.4 0 0
52.5 0 0
52.6 0 0
52.7 0 0
52.8 0 0
52.9 0 0
53 0 0
53.1 0 0
53.2 0 0
53.3 0 0
53.4 0 0
53.5 0 0
53.6 0 0
53.7 0 0
53.8 0 0
53.9 0 0
54 0 0
54.1 0 0
54.2 0 0
54.3 0 0
54.4 0 0
54.5 0 0
54.6 0 0
54.7 0 0
54.8 0 0
54.9 0 0
55 0 0
55.1 0 0
55.2 0 0
55.3 0 0
55.4 0 0
55.5 0 0
55.6 0 0
55.7 0 0
55.8 0 0
55.9 0 0
56 0 0
56.1 0 0
56.2 0 0
56.3 0 0
56.4 0 0
56.5 0 0
56.6 0 0
56.7 0 0
56.8 0 0
56.9 0 0
57 0 0
57.1 0 0
57.2 0 0
57.3 0 0
57.4 0 0
57.5 0 0
57.6 0 0
57.7 0 0
57.8 0 0
57.9 0 0
58 0 0
58.1 0 0
58.2 0 0
58.3 0 0
58.4 0 0
58.5 0 0
58.6 0 0
58.7 0 0
58.8 0 0
58.9 0 0
59 0 0
59.1 0 0
59.2 0 0
59.3 0 0
59.4 0 0
59.5 0 0
59.6 0 0
59.7 0 0
59.8 0 0
59.9 0 0
60 0 0
60.1 0 0
60.2 0 0
60.3 0 0
60.4 0 0
60.5 0 0
60.6 0 0
60.7 0 0
60.8 0 0
60.9 0 0
61 0 0
61.1 0 0
61.2 0 0
61.3 0 0
61.4 0 0
61.5 0 0
61.6 0 0
61.7 0 0
61.8 0 0
61.9 0 0
62 0 0
62.1 0 0
62.2 0 0
62.3 0 0
62.4 0 0
62.5 0 0
62.6 0 0
62.7 0 0
62.8 0 0
62.9 0 0
63 0 0
63.1 0 0
63.2 0 0
63.3 0 0
63.4 0 0
63.5 0 0
63.6 0 0
63.7 0 0
63.8 0 0
63.9 0 0
64 0 0
64.1 0 0
64.2 0 0
64.3 0 0
64.4 0 0
64.5 0 0
64.6 0 0
64.7 0 0
64.8 0 0
64.9 0 0
65 0 0
65.1 0 0
65.2 0 0
65.3 0 0
65.4 0 0
65.5 0 0
65.6 0 0
65.7 0 0
65.8 0 0
65.9 0 0
66 0 0
66.1 0 0
66.2 0 0
66.3 0 0
66.4 0 0
66.5 0 0
66.6 0 0
66.7 0 0
66.8 0 0
66.9 0 0
67 0 0
67.1 0 0
67.2 0 0
67.3 0 0
67.4 0 0
67.5 0 0
67.6 0 0
67.7 0 0
67.8 0 0
67.9 0 0
68 0 0
68.1 0 0
68.2 0 0
68.3 0 0
68.4 0 0
68.5 0 0
68.6 0 0
68.7 0 0
68.8 0 0
68.9 0 0
69 0 0
69.1 0 0
69.2 0 0
69.3 0 0
69.4 0 0
69.5 0 0
69.6 0 0
69.7 0 0
69.8 0 0
69.9 0 0
70 0 0
70.1 0 0
70.2 0 0
70.3 0 0
70.4 0 0
70.5 0 0
70.6 0 0
70.7 0 0
70.8 0 0
70.9 0 0
71 0 0
71.1 0 0
71.2 0 0
71.3 0 0
71.4 0 0
71.5 0 0
71.6 0 0
71.7 0 0
71.8 0 0
71.9 0 0
72 0 0
72.1 0 0
72.2 0 0
72.3 0 0
72.4 0 0
72.5 0 0
72.6 0 0
72.7 0 0
72.8 0 0
72.9 0 0
73 0 0
73.1 0 0
73.2 0 0
73.3 0 0
73.4 0 0
73.5 0 0
73.6 0 0
73.7 0 0
73.8 0 0
73.9 0 0
74 0 0
74.1 0 0
74.2 0 0
74.3 0 0
74.4 0 0
74.5 0 0
74.6 0 0
74.7 0 0
74.8 0 0
74.9 0 0
75 0 0
75.1 0 0
75.2 0 0
75.3 0 0
75.4 0 0
75.5 0 0
75.6 0 0
75.7 0 0
75.8 0 0
75.9 0 0
76 0 0
76.1 0 0
76.2 0 0
76.3 0 0
76.4 0 0
76.5 0 0
76.6 0 0
76.7 0 0
76.8 0 0
76.9 0 0
77 0 0
77.1 0 0
77.2 0 0
77.3 0 0
77.4 0 0
77.5 0 0
77.6 0 0
77.7 0 0
77.8 0 0
77.9 0 0
78 0 0
78.1 0 0
78.2 0 0
78.3 0 0
78.4 0 0
78.5 0 0
78.6 0 0
78.7 0 0
78.8 0 0
78.9 0 0
79 0 0
79.1 0 0
79.2 0 0
79.3 0 0
79.4 0 0
79.5 0 0
79.6 0 0
79.7 0 0
79.8 0 0
79.9 0 0
80 0 0
80.1 0 0
80.2 0 0
80.3 0 0
80.4 0 0
80.5 0 0
80.6 0 0
80.7 0 0
80.8 0 0
80.9 0 0
81 0 0
81.1 0 0
81.2 0 0
81.3 0 0
81.4 0 0
81.5 0 0
81.6 0 0
81.7 0 0
81.8 0 0
81.9 0 0
82 0 0
82.1 0 0
82.2 0 0
82.3 0 0
82.4 0 0
82.5 0 0
82.6 0 0
82.7 0 0
82.8 0 0
82.9 0 0
83 0 0
83.1 0 0
83.2 0 0
83.3 0 0
83.4 0 0
83.5 0 0
83.6 0 0
83.7 0 0
83.8 0 0
83.9 0 0
84 0 0
84.1 0 0
84.2 0 0
84.3 0 0
84.4 0 0
84.5 0 0
84.6 0 0
84.7 0 0
84.8 0 0
84.9 0 0
85 0 0
85.1 0 0
85.2 0 0
85.3 0 0
85.4 0 0
85.5 0 0
85.6 0 0
85.7 0 0
85.8 0 0
85.9 0 0
86 0 0
86.1 0 0
86.2 0 0
86.3 0 0
86.4 0 0
86.5 0 0
86.6 0 0
86.7 0 0
86.8 0 0
86.9 0 0
87 0 0
87.1 0 0
87.2 0 0
87.3 0 0
87.4 0 0
87.5 0 0
87.6 0 0
87.7 0 0
87.8 0 0
87.9 0 0
88 0 0
88.1 0 0
88.2 0 0
88.3 0 0
88.4 0 0
88.5 0 0
88.6 0 0
88.7 0 0
88.8 0 0
88.9 0 0
89 0 0
89.1 0 0
89.2 0 0
89.3 0 0
89.4 0 0
89.5 0 0
89.6 0 0
89.7 0 0
89.8 0 0
89.9 0 0
90 0 0
90.1 0 0
90.2 0 0
90.3 0 0
90.4 0 0
90.5 0 0
90.6 0 0
90.7 0 0
90.8 0 0
90.9 0 0
91 0 0
91.1 0 0
91.2 0 0
91.3 0 0
91.4 0 0
91.5 0 0
91.6 0 0
91.7 0 0
91.8 0 0
91.9 0 0
92 0 0
92.1 0 0
92.2 0 0
92.3 0 0
92.4 0 0
92.5 0 0
92.6 0 0
92.7 0 0
92.8 0 0
92.9 0 0
93 0 0
93.1 0 0
93.2 0 0
93.3 0 0
93.4 0 0
93.5 0 0
93.6 0 0
93.7 0 0
93.8 0 0
93.9 0 0
94 0 0
94.1 0 0
94.2 0 0
94.3 0 0
94.4 0 0
94.5 0 0
94.6 0 0
94.7 0 0
94.8 0 0
94.9 0 0
95 0 0
95.1 0 0
95.2 0 0
95.3 0 0
95.4 0 0
95.5 0 0
95.6 0 0
95.7 0 0
95.8 0 0
95.9 0 0
96 0 0
96.1 0 0
96.2 0 0
96.3 0 0
96.4 0 0
96.5 0 0
96.6 0 0
96.7 0 0
96.8 0 0
96.9 0 0
97 0 0
97.1 0 0
97.2 0 0
97.3 0 0
97.4 0 0
97.5 0 0
97.6 0 0
97.7 0 0
97.8 0 0
97.9 0 0
98 0 0
98.1 0 0
98.2 0 0
98.3 0 0
98.4 0 0
98.5 0 0
98.6 0 0
98.7 0 0
98.8 0 0
98.9 0 0
99 0 0
99.1 0 0
99.2 0 0
99.3 0 0
99.4 0 0
99.5 0 0
99.6 0 0
99.7 0 0
99.8 0 0
99.9 0 0
100 0 0
100.1 0 0
100.2 0 0
100.3 0 0
100.4 0 0
100.5 0 0
100.6 0 0
100.7 0 0
100.8 0 0
100.9 0 0
101 0 0
101.1 0 0
101.2 0 0
101.3 0 0
101.4 0 0
101.5 0 0
101.6 0 0
101.7 0 0
101.8 0 0
101.9 0 0
102 0 0
102.1 0 0
102.2 0 0
102.3 0 0
102.4 0 0
102.5 0 0
102.6 0 0
102.7 0 0
102.8 0 0
102.9 0 0
103 0 0
103.1 0 0
103.2 0 0
103.3 0 0
103.4 0 0
103.5 0 0
103.6 0 0
103.7 0 0
103.8 0 0
103.9 0 0
104 0 0
104.1 0 0
104.2 0 0
104.3 0 0
104.4 0 0
104.5 0 0
104.6 0 0
104.7 0 0
104.8 0 0
104.9 0 0
105 0 0
105.1 0 0
105.2 0 0
105.3 0 0
105.4 0 0
105.5 0 0
105.6 0 0
105.7 0 0
105.8 0 0
105.9 0 0
106 0 0
106.1 0 0
106.2 0 0
106.3 0 0
106.4 0 0
106.5 0 0
106.6 0 0
106.7 0 0
106.8 0 0
106.9 0 0
107 0 0
107.1 0 0
107.2 0 0
107.3 0 0
107.4 0 0
107.5 0 0
107.6 0 0
107.7 0 0
107.8 0 0
107.9 0 0
108 0 0
108.1 0 0
108.2 0 0
108.3 0 0
108.4 0 0
108.5 0 0
108.6 0 0
108.7 0 0
108.8 0 0
108.9 0 0
109 0 0
109.1 0 0
109.2 0 0
109.3 0 0
109.4 0 0
109.5 0 0
109.6 0 0
109.7 0 0
109.8 0 0
109.9 0 0
110 0 0
110.1 0 0
110.2 0 0
110.3 0 0
110.4 0 0
110.5 0 0
110.6 0 0
110.7 0 0
110.8 0 0
110.9 0 0
111 0 0
111.1 0 0
111.2 0 0
111.3 0 0
111.4 0 0
111.5 0 0
111.6 0 0
111.7 0 0
111.8 0 0
111.9 0 0
112 0 0
[...]
POINT_DATA 83304

SCALARS pressure float 1
LOOKUP_TABLE default
0
0
0
0
0
0
0
0
0
0
0
0
0
0
0
0
0
0
0
0
0
0
0
0
0
0
0
0
0
0
0
0
0
0
0
0
0
0
0
0
0
0
0
0
0
0
0
0
0
0
0
0
0
0
0
0
0
0
0
0
0
0
0
0
0
0
0
0
0
0
0
0
0
0
0
0
0
0
0
0
0
0
0
0
0
0
0
0
0
0
0
0
0
0
0
0
0
0
0
0
0
0
0
0
0
0
0
0
0
0
0
0
0
0
0
0
0
0
0
0
0
0
0
0
0
0
0
0
0
0
0
0
0
0
0
0
0
0
0
0
0
0
0
0
0
0
0
0
0
0
0
0
0
0
0
0
0
0
0
0
0
0
0
0
0
0
0
0
0
0
0
0
0
0
0
0
0
0
0
0
0
0
0
0
0
0
0
0
0
0
0
0
0
0
0
0
0
0
0
0
0
0
0
0
0
0
0
0
0
0
0
0
0
0
0
0
0
0
0
0
0
0
0
0
0
0
0
0
0
0
0
0
0
0
0
0
0
0
0
0
0
0
0
0
0
0
0
0
0
0
0
0
0
0
0
0
0
0
0
0
0
0
0
0
0
0
0
0
0
0
0
0
0
0
0
0
0
0
0
0
0
0
0
0
0
0
0
0
0
0
0
0
0
0
0
0
0
0
0
0
0
0
0
0
0
0
0
0
0
0
0
0
0
0
0
0
0
0
0
0
0
0
0
0
0
0
0
0
0
0
0
0
0
0
0
0
0
0
0
0
0
0
0
0
0
0
0
0
0
0
0
0
0
0
0
0
0
0
0
0
0
0
0
0
0
0
0
0
0
0
0
0
0
0
0
0
0
0
0
0
0
0
0
0
0
0
0
0
0
0
0
0
0
0
0
0
0
0
0
0
0
0
0
0
0
0
0
0
0
0
0
0
0
0
0
0
0
0
0
0
0
0
0
0
0
0
0
0
0
0
0
0
0
0
0
0
0
0
0
0
0
0
0
0
0
0
0
0
0
0
0
0
0
0
0
0
0
0
0
0
0
0
0
0
0
0
0
0
0
0
0
0
0
0
0
0
0
0
0
0
0
0
0
0
0
0
0
0
0
0
0
0
0
0
0
0
0
0
0
0
0
0
0
0
0
0
0
0
0
0
0
0
0
0
0
0
0
0
0
0
0
0
0
0
0
0
0
0
0
0
0
0
0
0
0
0
0
0
0
0
0
0
0
0
0
0
0
0
0
0
0
0
0
0
0
0
0
0
0
0
0
0
0
0
0
0
0
0
0
0
0
0
0
0
0
0
0
0
0
0
0
0
0
0
0
0
0
0
0
0
0
0
0
0
0
0
0
0
0
0
0
0
0
0
0
0
0
0
0
0
0
0
0
0
0
0
0
0
0
0
0
0
0
0
0
0
0
0
0
0
0
0
0
0
0
0
0
0
0
0
0
0
0
0
0
0
0
0
0
0
0
0
0
0
0
0
0
0
0
0
0
0
0
0
0
0
0
0
0
0
0
0
0
0
0
0
0
0
0
0
0
0
0
0
0
0
0
0
0
0
0
0
0
0
0
0
0
0
0
0
0
0
0
0
0
0
0
0
0
0
0
0
0
0
0
0
0
0
0
0
0
0
0
0
0
0
0
0
0
0
0
0
0
0
0
0
0
0
0
0
0
0
0
0
0
0
0
0
0
0
0
0
0
0
0
0
0
0
0
0
0
0
0
0
0
0
0
0
0
0
0
0
0
0
0
0
0
0
0
0
0
0
0
0
0
0
0
0
0
0
0
0
0
0
0
0
0
0
0
0
0
0
0
0
0
0
0
0
0
0
0
0
0
0
0
0
0
0
0
0
0
0
0
0
0
0
0
0
0
0
0
0
0
0
0
0
0
0
0
0
0
0
0
0
0
0
0
0
0
0
0
0
0
0
0
0
0
0
0
0
0
0
0
0
0
0
0
0
0
0
0
0
0
0
0
0
0
0
0
0
0
0
0
0
0
0
0
0
0
0
0
0
0
0
0
0
0
0
0
0
0
0
0
0
0
0
0
0
0
0
0
0
0
0
0
0
0
0
0
0
0
0
0
0
0
0
0
0
0
0
0
0
0
0
0
0
0
0
0
0
0
0
0
0
0
0
0
0
0
0
0
0
0
0
0
0
0
0
0
0
0
0
0
0
0
0
0
0
0
0
0
0
0
0
0
0
0
0
0
0
0
0
0
0
0
0
0
0
0
0
0
0
0
0
0
0
0
0
0
0
0
0
0
0
0
0
0
0
0
0
0
0
0
0
0
0
0
0
0
0
0
0
0
0
0
0
0
0
0
0
0
0
0
0
0
0
0
0
0
0
0
0
0
0
0
0
0
0
0
0
0
0
0
0
0
0
0
0
0
0
0
0
0
0
0
0
0
0
0
0
0
0
0
0
0
0
0
0
0
0
0
0
0
0
0
0
0
0
0
0
0
0
0
0
0
0
0
0
0
0
0
0
0
0
0
0
0
0
0
0
0
0
0
0
0
0
0
0
0
0
0
0
0
0
0
0
0
0
0
0
0
0
0
0
0
0
0
0
0
0
0
0
0
0
0
0
0
0
0
0
0
0
0
0
0
0
0
0
0
0
0
0
0
0
0
0
0
0
0
0
0
0
0
0
0
0
0
0
0
0
0
0
0
0
0
0
0
0
0
0
0
0
0
0
0
0
0
0
0
0
0
0
0
0
0
0
0
0
0
0
0
0
0
0
0
0
0
0
0
0
0
0
0
0
0
0
0
0
0
0
0
0
0
0
0
0
0
0
0
0
0
0
0
0
0
0
0
0
0
0
0
0
0
0
0
0
0
0
0
0
0
0
0
0
0
0
0
0
0
0
0
0
0
0
0
0
0
0
0
0
0
0
0
0
0
0
0
0
0
0
0
0
0
0
0
0
0
0
0
0
0
0
0
0
0
0
0
0
0
0
0
0
0
0
0
0
0
0
0
0
0
0
0
0
0
0
0
0
0
0
0
0
0
0
0
0
0
0
0
0
0
0
0
0
0
0
0
0
0
0
0
0
0
0
0
0
0
0
0
0
0
0
0
0
0
0
0
0
0
0
0
0
0
0
0
0
0
0
0
0
0
0
0
0
0
0
0
0
0
0
0
0
0
0
0
0
0
0
0
0
0
0
0
0
0
0
0
0
0
0
0
0
0
0
0
0
0
0
0
0
0
0
0
0
0
0
0
0
0
0
0
0
0
0
0
0
0
0
0
0
0
0
0
0
0
0
0
0
0
0
0
0
0
0
0
0
0
0
0
0
0
0
0
0
0
0
0
0
0
0
0
0
0
0
0
0
0
0
0
0
0
0
0
0
0
0
0
0
0
0
0
0
0
0
0
0
0
0
0
0
0
0
0
0
0
0
0
0
0
0
0
0
0
0
0
0
0
0
0
0
0
0
0
0
0
0
0
0
0
0
0
0
0
0
0
0
0
0
0
0
0
0
0
0
0
0
0
0
0
0
0
0
0
0
0
0
0
0
0
0
0
0
0
0
0
0
0
0
0
0
0
0
0
0
0
0
0
0
0
0
0
0
0
0
0
0
0
0
0
0
0
0
0
0
0
0
0
0
0
0
0
0
0
0.0776382
0.0528983
0.0436427
0.0357317
0.0304658
0.0270906
0.0247786
0.0230863
0.0217632
0.02068
0.0197621
0.0189632
0.0182519
0.0176027
0.0169912
0.0163926
0.0157807
0.0151258
0.0143979
0.0135745
0.0126515
0.0116546
0.0106526
0.00976873
0.0091818
0.00911356
0.00980063
0.0114563
0.0142354
0.01821
0.0233567
0.0295721
0.0366934
0.0445164
0.0528267
0.0614152
0.0700762
0.0786594
0.0870054
0.0949425
0.102318
0.109004
0.114883
0.1198
0.123547
0.125903
0.126697
0.125851
0.123377
0.119371
0.113995
0.107468
0.100065
0.0920898
0.0838499
0.0756232
0.0676359
0.060055
0.0529904
0.0465043
0.0406214
0.035339
0.0306351
0.0264752
0.0228182
0.0196196
0.0168338
0.0144159
0.0123238
0.010519
0.00896626
0.00763344
0.00649081
0.00551218
0.00467574
0.00396362
0.00336002
0.00284937
0.00241624
0.0020472
0.00173297
0.00146861
0.00125072
0.00107321
0.000924627
0.000789598
0.000654193
0.000512519
0.000370509
0.000244211
0.000152874
0.000109949
0.000116251
0.00015837
0.000212912
0.000254558
0.000264505
0.000236021
0.000175319
9.79793e-05
2.28164e-05
-3.43076e-05
-6.46296e-05
-6.76613e-05
-4.96651e-05
-2.05233e-05
9.672e-06
3.32376e-05
4.61878e-05
4.81936e-05
4.16048e-05
3.00769e-05
1.72923e-05
6.08217e-06
-1.95438e-06
-6.40447e-06
-7.72915e-06
-6.85641e-06
-4.8135e-06
-2.47229e-06
-4.25384e-07
1.02865e-06
1.83021e-06
2.07429e-06
1.92759e-06
1.56493e-06
1.13075e-06
7.23354e-07
3.9543e-07
1.63595e-07
2.09577e-08
-5.12851e-08
-7.51427e-08
-7.04718e-08
-5.2484e-08
-3.12746e-08
-1.25107e-08
1.40507e-09
1.01472e-08
1.44887e-08
1.56129e-08
1.46964e-08
1.27046e-08
1.03288e-08
8.00388e-09
5.96187e-09
4.29328e-09
3.00136e-09
2.04322e-09
1.35779e-09
8.8248e-10
5.61848e-10
3.50869e-10
2.15162e-10
1.29686e-10
7.68939e-11
4.48822e-11
2.58061e-11
1.46246e-11
8.17307e-12
4.50639e-12
2.45245e-12
1.31786e-12
6.99506e-13
3.66869e-13
1.90178e-13
9.74689e-14
4.94017e-14
2.47683e-14
1.22866e-14
6.03177e-15
2.93106e-15
1.41013e-15
6.71779e-16
3.1696e-16
1.48138e-16
6.85938e-17
3.14719e-17
1.43102e-17
6.44928e-18
2.88126e-18
1.27618e-18
5.60472e-19
2.44096e-19
1.05435e-19
4.51717e-20
1.91981e-20
8.09477e-21
3.38646e-21
1.4058e-21
5.79137e-22
2.36785e-22
9.6091e-23
3.87081e-23
1.54792e-23
6.14547e-24
2.42246e-24
9.48168e-25
3.6853e-25
1.42249e-25
5.45314e-26
2.0763e-26
7.85259e-27
2.95012e-27
1.10102e-27
4.08237e-28
1.50388e-28
5.50452e-29
2.00198e-29
7.23532e-30
2.59858e-30
9.27505e-31
3.2902e-31
1.16005e-31
4.06534e-32
1.41615e-32
4.90376e-33
1.68803e-33
5.77669e-34
1.96539e-34
6.6482e-35
2.23597e-35
7.47742e-36
2.48645e-36
8.22177e-37
2.70351e-37
8.84064e-38
2.87507e-38
9.29906e-39
2.99137e-39
9.57103e-40
3.04592e-40
9.64199e-41
3.0361e-41
9.51003e-42
2.96332e-42
9.18585e-43
2.83282e-43
8.69141e-44
2.65306e-44
8.05753e-45
2.43483e-45
7.3208e-46
2.19021e-46
6.52021e-47
1.93152e-47
5.69387e-48
1.67033e-48
4.87632e-49
1.41674e-49
4.09645e-50
1.17884e-50
3.37631e-51
9.62457e-52
2.73075e-52
7.71182e-53
2.16778e-53
6.06548e-54
1.68935e-54
4.68366e-55
1.29263e-55
3.55139e-56
9.7132e-57
2.64471e-57
7.16895e-58
1.93465e-58
5.1979e-59
1.39041e-59
3.70299e-60
9.81901e-61
2.59237e-61
6.81475e-62
1.78375e-62
4.64896e-63
1.2065e-63
3.11782e-64
8.02307e-65
2.0559e-65
5.24616e-66
1.33312e-66
3.37357e-67
8.50187e-68
2.13377e-68
5.33334e-69
1.32762e-69
3.29141e-70
8.12697e-71
1.99858e-71
4.89515e-72
1.19419e-72
2.90164e-73
7.02248e-74
1.69284e-74
4.06472e-75
9.72161e-76
2.31604e-76
5.49617e-77
1.29924e-77
3.05939e-78
7.17643e-79
1.67693e-79
3.90353e-80
9.05201e-81
2.09114e-81
4.81258e-82
1.1034e-82
2.52034e-83
5.73534e-84
1.30028e-84
2.93699e-85
6.60935e-86
1.48188e-86
3.3103e-87
7.36769e-88
1.63384e-88
3.60998e-89
7.9474e-90
1.74331e-90
3.81032e-91
8.29825e-92
1.80077e-92
3.89385e-93
8.38991e-94
1.80134e-94
3.8539e-95
8.2163e-96
1.74553e-96
3.69539e-97
7.79612e-98
1.63903e-98
3.43393e-99
7.16962e-100
1.49178e-100
3.09332e-101
6.39231e-102
1.31647e-102
2.702e-103
5.527e-104
1.12675e-104
2.28928e-105
4.63569e-106
9.35569e-107
1.88186e-107
3.77271e-108
7.53839e-109
1.5013e-109
2.98005e-110
5.89592e-111
1.16267e-111
2.28528e-112
4.47722e-113
8.74311e-114
1.70183e-114
3.30189e-115
6.38571e-116
1.23101e-116
2.36549e-117
4.531e-118
8.65134e-119
1.64662e-119
3.12411e-120
5.90866e-121
1.11399e-121
2.09369e-122
3.92267e-123
7.32646e-124
1.36412e-124
2.532e-125
4.68519e-126
8.64269e-127
1.5894e-127
2.91394e-128
5.32596e-129
9.7048e-130
1.763e-130
3.19298e-131
5.76531e-132
1.03785e-132
1.86268e-133
3.33299e-134
5.94601e-135
1.05759e-135
1.87548e-136
3.31599e-137
5.84553e-138
1.02742e-138
1.80048e-139
3.14591e-140
5.48061e-141
9.52001e-142
1.64882e-142
2.84737e-143
4.90285e-144
8.41768e-145
1.44104e-145
2.45984e-146
4.18682e-147
7.1058e-148
1.20253e-148
2.02924e-149
3.41455e-150
5.72921e-151
9.58567e-152
1.59926e-152
2.66065e-153
4.41397e-154
7.30214e-155
1.20462e-155
1.98168e-156
3.2509e-157
5.31817e-158
8.67586e-159
1.41142e-159
2.28981e-160
3.7046e-161
5.97704e-162
9.61693e-163
1.5431e-163
2.46925e-164
3.94046e-165
6.27114e-166
9.95324e-167
1.57545e-167
2.48695e-168
3.91524e-169
6.14721e-170
9.62564e-171
1.5032e-171
2.3412e-172
3.63665e-173
5.63387e-174
8.70474e-175
1.34138e-175
2.06157e-176
3.16007e-177
4.83114e-178
7.36647e-179
1.12028e-179
1.69926e-180
2.57072e-181
3.87896e-182
5.83776e-183
8.7629e-184
1.31197e-184
1.95918e-185
2.91813e-186
4.33525e-187
6.42403e-188
9.49481e-189
1.39976e-189
2.0583e-190
3.01895e-191
4.4167e-192
6.4452e-193
9.38152e-194
1.36211e-194
1.97266e-195
2.8497e-196
4.10632e-197
5.90223e-198
8.46235e-199
1.21026e-199
1.72657e-200
2.45702e-201
3.4878e-202
4.93876e-203
6.97602e-204
9.82934e-205
1.38156e-205
1.93707e-206
2.70928e-207
3.78004e-208
5.2611e-209
7.30457e-210
1.01171e-210
1.39784e-211
1.92665e-212
2.64908e-213
3.6336e-214
4.97198e-215
6.78695e-216
9.24216e-217
1.25554e-217
1.70154e-218
2.30047e-219
3.10279e-220
4.17497e-221
5.60427e-222
7.50503e-223
1.00266e-223
1.33638e-224
1.77696e-225
2.35722e-226
3.1196e-227
4.11887e-228
5.42546e-229
7.1298e-230
9.34765e-231
1.22268e-231
1.59556e-232
2.0773e-233
2.69823e-234
3.49664e-235
4.52082e-236
5.8315e-237
7.50484e-238
9.63611e-239
1.23442e-239
1.57772e-240
2.01187e-241
2.55962e-242
3.24909e-243
4.11487e-244
5.19951e-245
6.55513e-246
8.24548e-247
1.03482e-247
1.29579e-248
1.61891e-249
2.01806e-250
2.50996e-251
3.11475e-252
3.85661e-253
4.7645e-254
5.87296e-255
7.22317e-256
8.86402e-257
1.08534e-257
1.32599e-258
1.6164e-259
1.96606e-260
2.38608e-261
2.88945e-262
3.4913e-263
4.20925e-264
5.06369e-265
6.07824e-266
7.28011e-267
8.70057e-268
1.03755e-268
1.2346e-269
1.46587e-270
1.73669e-271
2.05308e-272
2.42187e-273
2.85072e-274
3.34827e-275
3.92419e-276
4.58929e-277
5.35557e-278
6.23641e-279
7.24656e-280
8.40233e-281
9.72165e-282
1.12241e-282
1.29312e-283
1.48663e-284
1.70547e-285
1.95238e-286
2.2303e-287
2.5424e-288
2.89206e-289
3.28287e-290
3.71866e-291
4.20345e-292
4.74146e-293
5.33714e-294
5.99508e-295
6.72006e-296
7.517e-297
8.39094e-298
9.34699e-299
1.03903e-299
1.15262e-300
1.27597e-301
1.40961e-302
1.55402e-303
1.70969e-304
1.87708e-305
2.05662e-306
2.24871e-307
2.45369e-308
2.67186e-309
2.90349e-310
3.14875e-311
3.40775e-312
3.68055e-313
3.96709e-314
4.26725e-315
4.5808e-316
4.90743e-317
5.2467e-318
5.59811e-319
5.9609e-320
6.33392e-321
6.71929e-322
6.91692e-323
4.94066e-324
0
0
0
0
0
0
0
0
0
0
0
0
0
0
0
0
0
0
0
0
0
0
0
0
0
0
0
0
0
0
0
0
0
0
0
0
0
0
0
0
0
0
0
0
0
0
0
0
0
0
0
0
0
0
0
0
0
0
0
0
0
0
0
0
0
0
0
0
0
0
0
0
0
0
0
0
0
0
0
0
0
0
0
0
0
0
0
0
0
0
0
0
0
0
0
0
0
0
0
0
0
0
0
0
0
0
0
0
0
0
0
0
0
0
0
0
0
0
0
0
0
0
0
0
0
0
0
0
0
0
0
0
0
0
0
0
0
0
0
0
0
0
0
0
0
0
0
0
0
0
0
0
0
0
0
0
0
0
0
0
0
0
0
0
0
0
0
0
0
0
0
0
0
0
0
0
0
0
0
0
0
0
0
0
0
0
0
0
0
0
0
0
0
0
0
0
0
0
0
0
0
0
0
0
0
0
0
0
0
0
0
0
0
0
0
0
0
0
0
0
0
0
0
0
0
0
0
0
0
0
0
0
0
0
0
0
0
0
0
0
0
0
0
0
0
0
0
0
0
0
0
0
0
0
0
0
0
0
0
0
0
0
0
0
0
0
0
0
0
0
0
0
0
0
0
0
0
0
0
0
0
0
0
0
0
0
0
0
0
0
0
0
0
0
0
0
0
0
0
0
0
0
0
0
0
0
0
0
0
0
0
0
0
0
0
0
0
0
0
0
0
0
0
0
0
0
0
0
0
0
0
0
0
0
0
0
0
0
0
0
0
0
0
0
0
0
0
0
0
0
0
0
0
0
0
0
0
0
0
0
0
0
0
0
0
0
0
0
0
0
0
0
0
0
0
0
0
0
0
0
0
0
0
0
0
0
0
0
0
0
0
0
0
0
0
0
0
0
0
0
0
0
0
0
0
0
0
0
0
0
0
0
0
0
0
0
0
0
0
0
0
0
0
0
0
0
0
0
0
0
0
0
0
0
0
0
0
0
0
0
0
0
0
0
0
0
0
0
0
0
0
0
0
0
0
0
0
0
0
0
0
0
0
0
0
0
0
0
0
0
0
0
0
0
0
0
0
0
0
0
0
0
0
0
0
0
0
0
0
0
0
0
0
0
0
0
0
0
0
0
0
0
0
0
0
0
0
0
0
0
0
0
0
0
0
0
0
0
0
0
0
0
0
0
0
0
0
0
0
0
0
0
0
0
0
0
0
0
0
0
0
0
0
0
0
0
0
0
0
0
0
0
0
0
0
0
0
0
0
0
0
0
0
0
0
0
0
0
0
0
0
0
0
0
0
0
0
0
0
0
0
0
0
0
0
0
0
0
0
0
0
0
0
0
0
0
0
0
0
0
0
0
0
0
0
0
0
0
0
0
0
0
0
0
0
0
0
0
0
0
0
0
0
0
0
0
0
0
0
0
0
0
0
0
0
0
0
0
0
0
0
0
0
0
0
0
0
0
0
0
0
0
0
0
0
0
0
0
0
0
0
0
0
0
0
0
0
0
0
0
0
0
0
0
0
0
0
0
0
0
0
0
0
0
0
0
0
0
0
0
0
0
0
0
0
0
0
0
0
0
0
0
0
0
0
0
0
0
0
0
0
0
0
0
0
0
0
0
0
0
0
0
0
0
0
0
0
0
0
0
0
0
0
0
0
0
0
0
0
0
0
0
0
0
0
0
0
0
0
0
0
0
0
0
0
0
0
0
0
0
0
0
0
0
0
0
0
0
0
0
0
0
0
0
0
0
0
0
0
0
0
0
0
0
0
0
0
0
0
0
0
0
0
0
0
0
0
0
0
0
0
0
0
0
0
0
0
0
0
0
0
0
0
0
0
0
0
0
0
0
0
0
0
0
0
0
0
0
0
0
0
0
0
0
0
0
0
0
0
0
0
0
0
0
0
0
0
0
0
0
0
0
0
0
0
0
0
0
0
0
0
0
0
0
0
0
0
0
0
0
0
0
0
0
0
0
0
0
0
0
0
0
0
0
0
0
0
0
0
0
0
0
0
0
0
0
0
0
0
0
0
0
0
0
0
0
0
0
0
0
0
0
0
0
0
0
0
0
0
0
0
0
0
0
0
0
0
0
0
0
0
0
0
0
0
0
0
0
0
0
0
0
0
0
0
0
0
0
0
0
0
0
0
0
0
0
0
0
0
0
0
0
0
0
0
0
0
0
0
0
0
0
0
0
0
0
0
0
0
0
0
0
0
0
0
0
0
0
0
0
0
0
0
0
0
0
0
0
0
0
0
0
0
0
0.0627826
0.03455
0.0299512
0.0252688
0.0221286
0.0199937
0.0184326
0.0172424
0.0162884
0.0154971
0.0148215
0.0142308
0.0137035
0.0132218
0.0127675
0.0123216
0.0118646
0.0113744
0.0108272
0.0102041
0.00949908
0.00872826
0.00793907
0.00721978
0.00670306
0.0065582
0.00697063
0.00811112
0.0101056
0.0130121
0.0168101
0.0214093
0.0266623
0.032388
0.0383961
0.0445043
0.0505391
0.0563684
0.0618795
0.0669633
0.0715417
0.0755571
0.0789648
0.0817056
0.0836976
0.0848561
0.0851213
0.0844731
0.0829321
0.0805511
0.0774076
0.073598
0.0692362
0.0644534
0.0593945
0.0542088
0.0490378
0.0440034
0.0392016
0.0347006
0.0305434
0.0267511
0.0233278
0.0202645
0.0175441
0.0151441
0.0130383
0.0111991
0.00959871
0.00821124
0.00701267
0.00598049
0.0050932
0.00433105
0.00367732
0.00311876
0.00264432
0.00224313
0.00190347
0.00161397
0.00136609
0.00115565
0.000981583
0.000842094
0.00073078
0.000635626
0.000542315
0.000440438
0.000329096
0.000218426
0.000125723
6.77931e-05
5.31618e-05
7.77319e-05
0.000125699
0.000175104
0.000205494
0.000204547
0.000171245
0.000114815
5.04132e-05
-6.45162e-06
-4.45986e-05
-5.96093e-05
-5.37132e-05
-3.37514e-05
-8.30422e-06
1.49536e-05
3.09638e-05
3.78313e-05
3.63835e-05
2.91553e-05
1.92499e-05
9.41777e-06
1.52469e-06
-3.58467e-06
-5.93024e-06
-6.09015e-06
-4.87457e-06
-3.06628e-06
-1.26507e-06
1.67407e-07
1.08883e-06
1.51722e-06
1.56155e-06
1.36172e-06
1.04721e-06
7.15621e-07
4.27063e-07
2.08645e-07
6.36831e-08
-1.84553e-08
-5.41943e-08
-6.01782e-08
-5.02159e-08
-3.4177e-08
-1.81373e-08
-5.14929e-09
3.80954e-09
8.97807e-09
1.11592e-08
1.12928e-08
1.02201e-08
8.58512e-09
6.82207e-09
5.18593e-09
3.79869e-09
2.69483e-09
1.85835e-09
1.24922e-09
8.20409e-10
5.27319e-10
3.32204e-10
2.0538e-10
1.24735e-10
7.44877e-11
4.37714e-11
2.53284e-11
1.44411e-11
8.11727e-12
4.5004e-12
2.46218e-12
1.32983e-12
7.09318e-13
3.73772e-13
1.9464e-13
1.00195e-13
5.10004e-14
2.56756e-14
1.27878e-14
6.30233e-15
3.07416e-15
1.48443e-15
7.09722e-16
3.36038e-16
1.57593e-16
7.32154e-17
3.37021e-17
1.53732e-17
6.95002e-18
3.11446e-18
1.38361e-18
6.09436e-19
2.66185e-19
1.153e-19
4.95354e-20
2.111e-20
8.92466e-21
3.74344e-21
1.558e-21
6.43465e-22
2.63743e-22
1.07293e-22
4.3325e-23
1.73666e-23
6.91095e-24
2.73048e-24
1.07116e-24
4.17264e-25
1.61415e-25
6.20131e-26
2.36624e-26
8.96803e-27
3.3762e-27
1.26264e-27
4.69111e-28
1.73159e-28
6.35055e-29
2.31419e-29
8.37983e-30
3.01537e-30
1.0783e-30
3.83223e-31
1.35364e-31
4.75241e-32
1.65846e-32
5.75304e-33
1.98386e-33
6.80088e-34
2.31782e-34
7.85369e-35
2.64586e-35
8.86287e-36
2.95201e-36
9.77713e-37
3.22014e-37
1.05469e-37
3.43539e-38
1.11287e-38
3.58551e-39
1.14896e-39
3.66208e-40
1.16099e-40
3.66123e-41
1.14851e-41
3.584e-42
1.1126e-42
3.43609e-43
1.05574e-43
3.22721e-44
9.81501e-45
2.97003e-45
8.94231e-46
2.67898e-46
7.98608e-47
2.36894e-47
6.99266e-48
2.05405e-48
6.00441e-49
1.74676e-49
5.0572e-50
1.45718e-50
4.1788e-51
1.19272e-51
3.38831e-52
9.58067e-53
2.69642e-53
7.55386e-54
2.10644e-54
5.84708e-55
1.61565e-55
4.44412e-56
1.21692e-56
3.3173e-57
9.00256e-58
2.43228e-58
6.54239e-59
1.75204e-59
4.67137e-60
1.24007e-60
3.27763e-61
8.62565e-62
2.26023e-62
5.89723e-63
1.53211e-63
3.96352e-64
1.02102e-64
2.61913e-65
6.69044e-66
1.70191e-66
4.31133e-67
1.08764e-67
2.73253e-68
6.83691e-69
1.70363e-69
4.22787e-70
1.04497e-70
2.57234e-71
6.30673e-72
1.54006e-72
3.74571e-73
9.07408e-74
2.18952e-74
5.26235e-75
1.2598e-75
3.00415e-76
7.13587e-77
1.68843e-77
3.97955e-78
9.34351e-79
2.18532e-79
5.09163e-80
1.18179e-80
2.73258e-81
6.29446e-82
1.44446e-82
3.3023e-83
7.52144e-84
1.70672e-84
3.85841e-85
8.69046e-86
1.95017e-86
4.36016e-87
9.71266e-88
2.15569e-88
4.76706e-89
1.05036e-89
2.30596e-90
5.04429e-91
1.09948e-91
2.3879e-92
5.16767e-93
1.11437e-93
2.39452e-94
5.12714e-95
1.09396e-95
2.32595e-96
4.92808e-97
1.0405e-97
2.18923e-98
4.59025e-99
9.59136e-100
1.99722e-100
4.14459e-101
8.57134e-102
1.76658e-102
3.6286e-103
7.42801e-104
1.51543e-104
3.08131e-105
6.24418e-106
1.26113e-106
2.53858e-107
5.09304e-108
1.01841e-108
2.02967e-109
4.03178e-110
7.9825e-111
1.57527e-111
3.09849e-112
6.07474e-113
1.18712e-113
2.31233e-114
4.48952e-115
8.68862e-116
1.67612e-116
3.22304e-117
6.17786e-118
1.18039e-118
2.24818e-119
4.26836e-120
8.07825e-121
1.52407e-121
2.86632e-122
5.37383e-123
1.00435e-123
1.87125e-124
3.47558e-125
6.43542e-126
1.18791e-126
2.18599e-127
4.01031e-128
7.33457e-129
1.33734e-129
2.431e-130
4.40561e-131
7.95991e-132
1.43382e-132
2.57496e-133
4.61039e-134
8.23001e-135
1.46474e-135
2.59911e-136
4.59826e-137
8.11092e-138
1.42646e-138
2.50128e-139
4.37306e-140
7.62305e-141
1.32494e-141
2.29612e-142
3.96755e-143
6.83573e-144
1.17432e-144
2.01152e-145
3.43565e-146
5.85114e-147
9.93621e-148
1.6825e-148
2.84082e-149
4.78291e-150
8.02976e-151
1.34424e-151
2.24399e-152
3.73537e-153
6.20042e-154
1.02632e-154
1.69406e-155
2.78839e-156
4.57682e-157
7.49138e-158
1.22279e-158
1.99037e-159
3.23082e-160
5.22987e-161
8.44249e-162
1.35911e-162
2.18196e-163
3.49341e-164
5.57781e-165
8.88165e-166
1.4104e-166
2.23362e-167
3.52779e-168
5.55674e-169
8.72904e-170
1.36755e-170
2.13676e-171
3.32968e-172
5.17474e-173
8.02076e-174
1.2399e-174
1.91163e-175
2.93948e-176
4.50804e-177
6.89539e-178
1.05193e-178
1.60056e-179
2.42895e-180
3.67645e-181
5.55016e-182
8.35698e-183
1.25506e-183
1.87997e-184
2.80876e-185
4.18558e-186
6.22123e-187
9.22314e-188
1.36385e-188
2.01159e-189
2.95939e-190
4.34267e-191
6.3563e-192
9.28e-193
1.35142e-193
1.96305e-194
2.8443e-195
4.11078e-196
5.92624e-197
8.52204e-198
1.22242e-198
1.74907e-199
2.49639e-200
3.55413e-201
5.04747e-202
7.15051e-203
1.01047e-203
1.42441e-204
2.00298e-205
2.80961e-206
3.93141e-207
5.48762e-208
7.6411e-209
1.06137e-209
1.47068e-210
2.03287e-211
2.80315e-212
3.85592e-213
5.29125e-214
7.24334e-215
9.89171e-216
1.34759e-216
1.83147e-217
2.48313e-218
3.3586e-219
4.53188e-220
6.10046e-221
8.19241e-222
1.09756e-222
1.46694e-223
1.956e-224
2.60195e-225
3.45304e-226
4.57174e-227
6.03864e-228
7.9575e-229
1.04615e-229
1.37214e-230
1.79551e-231
2.34403e-232
3.053e-233
3.96717e-234
5.14314e-235
6.65226e-236
8.58433e-237
1.1052e-237
1.41963e-238
1.81932e-239
2.3262e-240
2.96748e-241
3.7769e-242
4.79613e-243
6.07654e-244
7.68125e-245
9.68769e-246
1.21905e-246
1.53053e-247
1.91725e-248
2.39626e-249
2.9882e-250
3.71799e-251
4.61563e-252
5.71714e-253
7.06569e-254
8.71282e-255
1.072e-255
1.31601e-256
1.61198e-257
1.97012e-258
2.40251e-259
2.92331e-260
3.54914e-261
4.29945e-262
5.19691e-263
6.2679e-264
7.543e-265
9.05761e-266
1.08525e-266
1.29748e-267
1.54781e-268
1.84243e-269
2.18836e-270
2.59359e-271
3.06719e-272
3.61942e-273
4.26185e-274
5.00748e-275
5.87087e-276
6.86833e-277
8.01798e-278
9.33998e-279
1.08567e-279
1.25926e-280
1.45749e-281
1.68334e-282
1.94003e-283
2.23112e-284
2.56043e-285
2.93213e-286
3.35066e-287
3.82085e-288
4.34782e-289
4.93704e-290
5.59431e-291
6.32576e-292
7.13783e-293
8.03728e-294
9.03112e-295
1.01266e-295
1.13314e-296
1.2653e-297
1.40993e-298
1.56784e-299
1.73981e-300
1.92664e-301
2.12912e-302
2.34801e-303
2.58407e-304
2.83799e-305
3.11046e-306
3.40207e-307
3.71339e-308
4.04489e-309
4.39696e-310
4.76991e-311
5.16392e-312
5.57909e-313
6.01536e-314
6.47256e-315
6.95037e-316
7.44832e-317
7.96577e-318
8.50198e-319
9.05622e-320
9.6244e-321
1.01778e-321
1.08694e-322
9.88131e-324
0
0
0
0
0
0
0
0
0
0
0
0
0
0
0
0
0
0
0
0
0
0
0
0
0
0
0
0
0
0
0
0
0
0
0
0
0
0
0
0
0
0
0
0
0
0
0
0
0
0
0
0
0
0
0
0
0
0
0
0
0
0
0
0
0
0
0
0
0
0
0
0
0
0
0
0
0
0
0
0
0
0
0
0
0
0
0
0
0
0
0
0
0
0
0
0
0
0
0
0
0
0
0
0
0
0
0
0
0
0
0
0
0
0
0
0
0
0
0
0
0