# vtk DataFile Version 2.0
FlowField
ASCII
DATASET STRUCTURED_GRID
DIMENSIONS 1602 1 52
POINTS 83304 float
0 0 0
0.1 0 0
0.2 0 0
0.3 0 0
0.4 0 0
0.5 0 0
0.6 0 0
0.7 0 0
0.8 0 0
0.9 0 0
1 0 0
1.1 0 0
1.2 0 0
1.3 0 0
1.4 0 0
1.5 0 0
1.6 0 0
1.7 0 0
1.8 0 0
1.9 0 0
2 0 0
2.1 0 0
2.2 0 0
2.3 0 0
2.4 0 0
2.5 0 0
2.6 0 0
2.7 0 0
2.8 0 0
2.9 0 0
3 0 0
3.1 0 0
3.2 0 0
3.3 0 0
3.4 0 0
3.5 0 0
3.6 0 0
3.7 0 0
3.8 0 0
3.9 0 0
4 0 0
4.1 0 0
4.2 0 0
4.3 0 0
4.4 0 0
4.5 0 0
4.6 0 0
4.7 0 0
4.8 0 0
4.9 0 0
5 0 0
5.1 0 0
5.2 0 0
5.3 0 0
5.4 0 0
5.5 0 0
5.6 0 0
5.7 0 0
5.8 0 0
5.9 0 0
6 0 0
6.1 0 0
6.2 0 0
6.3 0 0
6.4 0 0
6.5 0 0
6.6 0 0
6.7 0 0
6.8 0 0
6.9 0 0
7 0 0
7.1 0 0
7.2 0 0
7.3 0 0
7.4 0 0
7.5 0 0
7.6 0 0
7.7 0 0
7.8 0 0
7.9 0 0
8 0 0
8.1 0 0
8.2 0 0
8.3 0 0
8.4 0 0
8.5 0 0
8.6 0 0
8.7 0 0
8.8 0 0
8.9 0 0
9 0 0
9.1 0 0
9.2 0 0
9.3 0 0
9.4 0 0
9.5 0 0
9.6 0 0
9.7 0 0
9.8 0 0
9.9 0 0
10 0 0
10.1 0 0
10.2 0 0
10.3 0 0
10.4 0 0
10.5 0 0
10.6 0 0
10.7 0 0
10.8 0 0
10.9 0 0
11 0 0
11.1 0 0
11.2 0 0
11.3 0 0
11.4 0 0
11.5 0 0
11.6 0 0
11.7 0 0
11.8 0 0
11.9 0 0
12 0 0
12.1 0 0
12.2 0 0
12.3 0 0
12.4 0 0
12.5 0 0
12.6 0 0
12.7 0 0
12.8 0 0
12.9 0 0
13 0 0
13.1 0 0
13.2 0 0
13.3 0 0
13.4 0 0
13.5 0 0
13.6 0 0
13.7 0 0
13.8 0 0
13.9 0 0
14 0 0
14.1 0 0
14.2 0 0
14.3 0 0
14.4 0 0
14.5 0 0
14.6 0 0
14.7 0 0
14.8 0 0
14.9 0 0
15 0 0
15.1 0 0
15.2 0 0
15.3 0 0
15.4 0 0
15.5 0 0
15.6 0 0
15.7 0 0
15.8 0 0
15.9 0 0
16 0 0
16.1 0 0
16.2 0 0
16.3 0 0
16.4 0 0
16.5 0 0
16.6 0 0
16.7 0 0
16.8 0 0
16.9 0 0
17 0 0
17.1 0 0
17.2 0 0
17.3 0 0
17.4 0 0
17.5 0 0
17.6 0 0
17.7 0 0
17.8 0 0
17.9 0 0
18 0 0
18.1 0 0
18.2 0 0
18.3 0 0
18.4 0 0
18.5 0 0
18.6 0 0
18.7 0 0
18.8 0 0
18.9 0 0
19 0 0
19.1 0 0
19.2 0 0
19.3 0 0
19.4 0 0
19.5 0 0
19.6 0 0
19.7 0 0
19.8 0 0
19.9 0 0
20 0 0
20.1 0 0
20.2 0 0
20.3 0 0
20.4 0 0
20.5 0 0
20.6 0 0
20.7 0 0
20.8 0 0
20.9 0 0
21 0 0
21.1 0 0
21.2 0 0
21.3 0 0
21.4 0 0
21.5 0 0
21.6 0 0
21.7 0 0
21.8 0 0
21.9 0 0
22 0 0
22.1 0 0
22.2 0 0
22.3 0 0
22.4 0 0
22.5 0 0
22.6 0 0
22.7 0 0
22.8 0 0
22.9 0 0
23 0 0
23.1 0 0
23.2 0 0
23.3 0 0
23.4 0 0
23.5 0 0
23.6 0 0
23.7 0 0
23.8 0 0
23.9 0 0
24 0 0
24.1 0 0
24.2 0 0
24.3 0 0
24.4 0 0
24.5 0 0
24.6 0 0
24.7 0 0
24.8 0 0
24.9 0 0
25 0 0
25.1 0 0
25.2 0 0
25.3 0 0
25.4 0 0
25.5 0 0
25.6 0 0
25.7 0 0
25.8 0 0
25.9 0 0
26 0 0
26.1 0 0
26.2 0 0
26.3 0 0
26.4 0 0
26.5 0 0
26.6 0 0
26.7 0 0
26.8 0 0
26.9 0 0
27 0 0
27.1 0 0
27.2 0 0
27.3 0 0
27.4 0 0
27.5 0 0
27.6 0 0
27.7 0 0
27.8 0 0
27.9 0 0
28 0 0
28.1 0 0
28.2 0 0
28.3 0 0
28.4 0 0
28.5 0 0
28.6 0 0
28.7 0 0
28.8 0 0
28.9 0 0
29 0 0
29.1 0 0
29.2 0 0
29.3 0 0
29.4 0 0
29.5 0 0
29.6 0 0
29.7 0 0
29.8 0 0
29.9 0 0
30 0 0
30.1 0 0
30.2 0 0
30.3 0 0
30.4 0 0
30.5 0 0
30.6 0 0
30.7 0 0
30.8 0 0
30.9 0 0
31 0 0
31.1 0 0
31.2 0 0
31.3 0 0
31.4 0 0
31.5 0 0
31.6 0 0
31.7 0 0
31.8 0 0
31.9 0 0
32 0 0
32.1 0 0
32.2 0 0
32.3 0 0
32.4 0 0
32.5 0 0
32.6 0 0
32.7 0 0
32.8 0 0
32.9 0 0
33 0 0
33.1 0 0
33.2 0 0
33.3 0 0
33.4 0 0
33.5 0 0
33.6 0 0
33.7 0 0
33.8 0 0
33.9 0 0
34 0 0
34.1 0 0
34.2 0 0
34.3 0 0
34.4 0 0
34.5 0 0
34.6 0 0
34.7 0 0
34.8 0 0
34.9 0 0
35 0 0
35.1 0 0
35.2 0 0
35.3 0 0
35.4 0 0
35.5 0 0
35.6 0 0
35.7 0 0
35.8 0 0
35.9 0 0
36 0 0
36.1 0 0
36.2 0 0
36.3 0 0
36.4 0 0
36.5 0 0
36.6 0 0
36.7 0 0
36.8 0 0
36.9 0 0
37 0 0
37.1 0 0
37.2 0 0
37.3 0 0
37.4 0 0
37.5 0 0
37.6 0 0
37.7 0 0
37.8 0 0
37.9 0 0
38 0 0
38.1 0 0
38.2 0 0
38.3 0 0
38.4 0 0
38.5 0 0
38.6 0 0
38.7 0 0
38.8 0 0
38.9 0 0
39 0 0
39.1 0 0
39.2 0 0
39.3 0 0
39.4 0 0
39.5 0 0
39.6 0 0
39.7 0 0
39.8 0 0
39.9 0 0
40 0 0
40.1 0 0
40.2 0 0
40.3 0 0
40.4 0 0
40.5 0 0
40.6 0 0
40.7 0 0
40.8 0 0
40.9 0 0
41 0 0
41.1 0 0
41.2 0 0
41.3 0 0
41.4 0 0
41.5 0 0
41.6 0 0
41.7 0 0
41.8 0 0
41.9 0 0
42 0 0
42.1 0 0
42.2 0 0
42.3 0 0
42.4 0 0
42.5 0 0
42.6 0 0
42.7 0 0
42.8 0 0
42.9 0 0
43 0 0
43.1 0 0
43.2 0 0
43.3 0 0
43.4 0 0
43.5 0 0
43.6 0 0
43.7 0 0
43.8 0 0
43.9 0 0
44 0 0
44.1 0 0
44.2 0 0
44.3 0 0
44.4 0 0
44.5 0 0
44.6 0 0
44.7 0 0
44.8 0 0
44.9 0 0
45 0 0
45.1 0 0
45.2 0 0
45.3 0 0
45.4 0 0
45.5 0 0
45.6 0 0
45.7 0 0
45.8 0 0
45.9 0 0
46 0 0
46.1 0 0
46.2 0 0
46.3 0 0
46.4 0 0
46.5 0 0
46.6 0 0
46.7 0 0
46.8 0 0
46.9 0 0
47 0 0
47.1 0 0
47.2 0 0
47.3 0 0
47.4 0 0
47.5 0 0
47.6 0 0
47.7 0 0
47.8 0 0
47.9 0 0
48 0 0
48.1 0 0
48.2 0 0
48.3 0 0
48.4 0 0
48.5 0 0
48.6 0 0
48.7 0 0
48.8 0 0
48.9 0 0
49 0 0
49.1 0 0
49.2 0 0
49.3 0 0
49.4 0 0
49.5 0 0
49.6 0 0
49.7 0 0
49.8 0 0
49.9 0 0
50 0 0
50.1 0 0
50.2 0 0
50.3 0 0
50.4 0 0
50.5 0 0
50.6 0 0
50.7 0 0
50.8 0 0
50.9 0 0
51 0 0
51.1 0 0
51.2 0 0
51.3 0 0
51.4 0 0
51.5 0 0
51.6 0 0
51.7 0 0
51.8 0 0
51.9 0 0
52 0 0
52.1 0 0
52.2 0 0
52.3 0 0
52.4 0 0
52.5 0 0
52.6 0 0
52.7 0 0
52.8 0 0
52.9 0 0
53 0 0
53.1 0 0
53.2 0 0
53.3 0 0
53.4 0 0
53.5 0 0
53.6 0 0
53.7 0 0
53.8 0 0
53.9 0 0
54 0 0
54.1 0 0
54.2 0 0
54.3 0 0
54.4 0 0
54.5 0 0
54.6 0 0
54.7 0 0
54.8 0 0
54.9 0 0
55 0 0
55.1 0 0
55.2 0 0
55.3 0 0
55.4 0 0
55.5 0 0
55.6 0 0
55.7 0 0
55.8 0 0
55.9 0 0
56 0 0
56.1 0 0
56.2 0 0
56.3 0 0
56.4 0 0
56.5 0 0
56.6 0 0
56.7 0 0
56.8 0 0
56.9 0 0
57 0 0
57.1 0 0
57.2 0 0
57.3 0 0
57.4 0 0
57.5 0 0
57.6 0 0
57.7 0 0
57.8 0 0
57.9 0 0
58 0 0
58.1 0 0
58.2 0 0
58.3 0 0
58.4 0 0
58.5 0 0
58.6 0 0
58.7 0 0
58.8 0 0
58.9 0 0
59 0 0
59.1 0 0
59.2 0 0
59.3 0 0
59.4 0 0
59.5 0 0
59.6 0 0
59.7 0 0
59.8 0 0
59.9 0 0
60 0 0
60.1 0 0
60.2 0 0
60.3 0 0
60.4 0 0
60.5 0 0
60.6 0 0
60.7 0 0
60.8 0 0
60.9 0 0
61 0 0
61.1 0 0
61.2 0 0
61.3 0 0
61.4 0 0
61.5 0 0
61.6 0 0
61.7 0 0
61.8 0 0
61.9 0 0
62 0 0
62.1 0 0
62.2 0 0
62.3 0 0
62.4 0 0
62.5 0 0
62.6 0 0
62.7 0 0
62.8 0 0
62.9 0 0
63 0 0
63.1 0 0
63.2 0 0
63.3 0 0
63.4 0 0
63.5 0 0
63.6 0 0
63.7 0 0
63.8 0 0
63.9 0 0
64 0 0
64.1 0 0
64.2 0 0
64.3 0 0
64.4 0 0
64.5 0 0
64.6 0 0
64.7 0 0
64.8 0 0
64.9 0 0
65 0 0
65.1 0 0
65.2 0 0
65.3 0 0
65.4 0 0
65.5 0 0
65.6 0 0
65.7 0 0
65.8 0 0
65.9 0 0
66 0 0
66.1 0 0
66.2 0 0
66.3 0 0
66.4 0 0
66.5 0 0
66.6 0 0
66.7 0 0
66.8 0 0
66.9 0 0
67 0 0
67.1 0 0
67.2 0 0
67.3 0 0
67.4 0 0
67.5 0 0
67.6 0 0
67.7 0 0
67.8 0 0
67.9 0 0
68 0 0
68.1 0 0
68.2 0 0
68.3 0 0
68.4 0 0
68.5 0 0
68.6 0 0
68.7 0 0
68.8 0 0
68.9 0 0
69 0 0
69.1 0 0
69.2 0 0
69.3 0 0
69.4 0 0
69.5 0 0
69.6 0 0
69.7 0 0
69.8 0 0
69.9 0 0
70 0 0
70.1 0 0
70.2 0 0
70.3 0 0
70.4 0 0
70.5 0 0
70.6 0 0
70.7 0 0
70.8 0 0
70.9 0 0
71 0 0
71.1 0 0
71.2 0 0
71.3 0 0
71.4 0 0
71.5 0 0
71.6 0 0
71.7 0 0
71.8 0 0
71.9 0 0
72 0 0
72.1 0 0
72.2 0 0
72.3 0 0
72.4 0 0
72.5 0 0
72.6 0 0
72.7 0 0
72.8 0 0
72.9 0 0
73 0 0
73.1 0 0
73.2 0 0
73.3 0 0
73.4 0 0
73.5 0 0
73.6 0 0
73.7 0 0
73.8 0 0
73.9 0 0
74 0 0
74.1 0 0
74.2 0 0
74.3 0 0
74.4 0 0
74.5 0 0
74.6 0 0
74.7 0 0
74.8 0 0
74.9 0 0
75 0 0
75.1 0 0
75.2 0 0
75.3 0 0
75.4 0 0
75.5 0 0
75.6 0 0
75.7 0 0
75.8 0 0
75.9 0 0
76 0 0
76.1 0 0
76.2 0 0
76.3 0 0
76.4 0 0
76.5 0 0
76.6 0 0
76.7 0 0
76.8 0 0
76.9 0 0
77 0 0
77.1 0 0
77.2 0 0
77.3 0 0
77.4 0 0
77.5 0 0
77.6 0 0
77.7 0 0
77.8 0 0
77.9 0 0
78 0 0
78.1 0 0
78.2 0 0
78.3 0 0
78.4 0 0
78.5 0 0
78.6 0 0
78.7 0 0
78.8 0 0
78.9 0 0
79 0 0
79.1 0 0
79.2 0 0
79.3 0 0
79.4 0 0
79.5 0 0
79.6 0 0
79.7 0 0
79.8 0 0
79.9 0 0
80 0 0
80.1 0 0
80.2 0 0
80.3 0 0
80.4 0 0
80.5 0 0
80.6 0 0
80.7 0 0
80.8 0 0
80.9 0 0
81 0 0
81.1 0 0
81.2 0 0
81.3 0 0
81.4 0 0
81.5 0 0
81.6 0 0
81.7 0 0
81.8 0 0
81.9 0 0
82 0 0
82.1 0 0
82.2 0 0
82.3 0 0
82.4 0 0
82.5 0 0
82.6 0 0
82.7 0 0
82.8 0 0
82.9 0 0
83 0 0
83.1 0 0
83.2 0 0
83.3 0 0
83.4 0 0
83.5 0 0
83.6 0 0
83.7 0 0
83.8 0 0
83.9 0 0
84 0 0
84.1 0 0
84.2 0 0
84.3 0 0
84.4 0 0
84.5 0 0
84.6 0 0
84.7 0 0
84.8 0 0
84.9 0 0
85 0 0
85.1 0 0
85.2 0 0
85.3 0 0
85.4 0 0
85.5 0 0
85.6 0 0
85.7 0 0
85.8 0 0
85.9 0 0
86 0 0
86.1 0 0
86.2 0 0
86.3 0 0
86.4 0 0
86.5 0 0
86.6 0 0
86.7 0 0
86.8 0 0
86.9 0 0
87 0 0
87.1 0 0
87.2 0 0
87.3 0 0
87.4 0 0
87.5 0 0
87.6 0 0
87.7 0 0
87.8 0 0
87.9 0 0
88 0 0
88.1 0 0
88.2 0 0
88.3 0 0
88.4 0 0
88.5 0 0
88.6 0 0
88.7 0 0
88.8 0 0
88.9 0 0
89 0 0
89.1 0 0
89.2 0 0
89.3 0 0
89.4 0 0
89.5 0 0
89.6 0 0
89.7 0 0
89.8 0 0
89.9 0 0
90 0 0
90.1 0 0
90.2 0 0
90.3 0 0
90.4 0 0
90.5 0 0
90.6 0 0
90.7 0 0
90.8 0 0
90.9 0 0
91 0 0
91.1 0 0
91.2 0 0
91.3 0 0
91.4 0 0
91.5 0 0
91.6 0 0
91.7 0 0
91.8 0 0
91.9 0 0
92 0 0
92.1 0 0
92.2 0 0
92.3 0 0
92.4 0 0
92.5 0 0
92.6 0 0
92.7 0 0
92.8 0 0
92.9 0 0
93 0 0
93.1 0 0
93.2 0 0
93.3 0 0
93.4 0 0
93.5 0 0
93.6 0 0
93.7 0 0
93.8 0 0
93.9 0 0
94 0 0
94.1 0 0
94.2 0 0
94.3 0 0
94.4 0 0
94.5 0 0
94.6 0 0
94.7 0 0
94.8 0 0
94.9 0 0
95 0 0
95.1 0 0
95.2 0 0
95.3 0 0
95.4 0 0
95.5 0 0
95.6 0 0
95.7 0 0
95.8 0 0
95.9 0 0
96 0 0
96.1 0 0
96.2 0 0
96.3 0 0
96.4 0 0
96.5 0 0
96.6 0 0
96.7 0 0
96.8 0 0
96.9 0 0
97 0 0
97.1 0 0
97.2 0 0
97.3 0 0
97.4 0 0
97.5 0 0
97.6 0 0
97.7 0 0
97.8 0 0
97.9 0 0
98 0 0
98.1 0 0
98.2 0 0
98.3 0 0
98.4 0 0
98.5 0 0
98.6 0 0
98.7 0 0
98.8 0 0
98.9 0 0
99 0 0
99.1 0 0
99.2 0 0
99.3 0 0
99.4 0 0
99.5 0 0
99.6 0 0
99.7 0 0
99.8 0 0
99.9 0 0
100 0 0
100.1 0 0
100.2 0 0
100.3 0 0
100.4 0 0
100.5 0 0
100.6 0 0
100.7 0 0
100.8 0 0
100.9 0 0
101 0 0
101.1 0 0
101.2 0 0
101.3 0 0
101.4 0 0
101.5 0 0
101.6 0 0
101.7 0 0
101.8 0 0
101.9 0 0
102 0 0
102.1 0 0
102.2 0 0
102.3 0 0
102.4 0 0
102.5 0 0
102.6 0 0
102.7 0 0
102.8 0 0
102.9 0 0
103 0 0
103.1 0 0
103.2 0 0
103.3 0 0
103.4 0 0
103.5 0 0
103.6 0 0
103.7 0 0
103.8 0 0
103.9 0 0
104 0 0
104.1 0 0
104.2 0 0
104.3 0 0
104.4 0 0
104.5 0 0
104.6 0 0
104.7 0 0
104.8 0 0
104.9 0 0
105 0 0
105.1 0 0
105.2 0 0
105.3 0 0
105.4 0 0
105.5 0 0
105.6 0 0
105.7 0 0
105.8 0 0
105.9 0 0
106 0 0
106.1 0 0
106.2 0 0
106.3 0 0
106.4 0 0
106.5 0 0
106.6 0 0
106.7 0 0
106.8 0 0
106.9 0 0
107 0 0
107.1 0 0
107.2 0 0
107.3 0 0
107.4 0 0
107.5 0 0
107.6 0 0
107.7 0 0
107.8 0 0
107.9 0 0
108 0 0
108.1 0 0
108.2 0 0
108.3 0 0
108.4 0 0
108.5 0 0
108.6 0 0
108.7 0 0
108.8 0 0
108.9 0 0
109 0 0
109.1 0 0
109.2 0 0
109.3 0 0
109.4 0 0
109.5 0 0
109.6 0 0
109.7 0 0
109.8 0 0
109.9 0 0
110 0 0
110.1 0 0
110.2 0 0
110.3 0 0
110.4 0 0
110.5 0 0
110.6 0 0
110.7 0 0
110.8 0 0
110.9 0 0
111 0 0
111.1 0 0
111.2 0 0
111.3 0 0
111.4 0 0
111.5 0 0
111.6 0 0
111.7 0 0
111.8 0 0
111.9 0 0
112 0 0
[...]
POINT_DATA 83304

SCALARS pressure float 1
LOOKUP_TABLE default
0
0
0
0
0
0
0
0
0
0
0
0
0
0
0
0
0
0
0
0
0
0
0
0
0
0
0
0
0
0
0
0
0
0
0
0
0
0
0
0
0
0
0
0
0
0
0
0
0
0
0
0
0
0
0
0
0
0
0
0
0
0
0
0
0
0
0
0
0
0
0
0
0
0
0
0
0
0
0
0
0
0
0
0
0
0
0
0
0
0
0
0
0
0
0
0
0
0
0
0
0
0
0
0
0
0
0
0
0
0
0
0
0
0
0
0
0
0
0
0
0
0
0
0
0
0
0
0
0
0
0
0
0
0
0
0
0
0
0
0
0
0
0
0
0
0
0
0
0
0
0
0
0
0
0
0
0
0
0
0
0
0
0
0
0
0
0
0
0
0
0
0
0
0
0
0
0
0
0
0
0
0
0
0
0
0
0
0
0
0
0
0
0
0
0
0
0
0
0
0
0
0
0
0
0
0
0
0
0
0
0
0
0
0
0
0
0
0
0
0
0
0
0
0
0
0
0
0
0
0
0
0
0
0
0
0
0
0
0
0
0
0
0
0
0
0
0
0
0
0
0
0
0
0
0
0
0
0
0
0
0
0
0
0
0
0
0
0
0
0
0
0
0
0
0
0
0
0
0
0
0
0
0
0
0
0
0
0
0
0
0
0
0
0
0
0
0
0
0
0
0
0
0
0
0
0
0
0
0
0
0
0
0
0
0
0
0
0
0
0
0
0
0
0
0
0
0
0
0
0
0
0
0
0
0
0
0
0
0
0
0
0
0
0
0
0
0
0
0
0
0
0
0
0
0
0
0
0
0
0
0
0
0
0
0
0
0
0
0
0
0
0
0
0
0
0
0
0
0
0
0
0
0
0
0
0
0
0
0
0
0
0
0
0
0
0
0
0
0
0
0
0
0
0
0
0
0
0
0
0
0
0
0
0
0
0
0
0
0
0
0
0
0
0
0
0
0
0
0
0
0
0
0
0
0
0
0
0
0
0
0
0
0
0
0
0
0
0
0
0
0
0
0
0
0
0
0
0
0
0
0
0
0
0
0
0
0
0
0
0
0
0
0
0
0
0
0
0
0
0
0
0
0
0
0
0
0
0
0
0
0
0
0
0
0
0
0
0
0
0
0
0
0
0
0
0
0
0
0
0
0
0
0
0
0
0
0
0
0
0
0
0
0
0
0
0
0
0
0
0
0
0
0
0
0
0
0
0
0
0
0
0
0
0
0
0
0
0
0
0
0
0
0
0
0
0
0
0
0
0
0
0
0
0
0
0
0
0
0
0
0
0
0
0
0
0
0
0
0
0
0
0
0
0
0
0
0
0
0
0
0
0
0
0
0
0
0
0
0
0
0
0
0
0
0
0
0
0
0
0
0
0
0
0
0
0
0
0
0
0
0
0
0
0
0
0
0
0
0
0
0
0
0
0
0
0
0
0
0
0
0
0
0
0
0
0
0
0
0
0
0
0
0
0
0
0
0
0
0
0
0
0
0
0
0
0
0
0
0
0
0
0
0
0
0
0
0
0
0
0
0
0
0
0
0
0
0
0
0
0
0
0
0
0
0
0
0
0
0
0
0
0
0
0
0
0
0
0
0
0
0
0
0
0
0
0
0
0
0
0
0
0
0
0
0
0
0
0
0
0
0
0
0
0
0
0
0
0
0
0
0
0
0
0
0
0
0
0
0
0
0
0
0
0
0
0
0
0
0
0
0
0
0
0
0
0
0
0
0
0
0
0
0
0
0
0
0
0
0
0
0
0
0
0
0
0
0
0
0
0
0
0
0
0
0
0
0
0
0
0
0
0
0
0
0
0
0
0
0
0
0
0
0
0
0
0
0
0
0
0
0
0
0
0
0
0
0
0
0
0
0
0
0
0
0
0
0
0
0
0
0
0
0
0
0
0
0
0
0
0
0
0
0
0
0
0
0
0
0
0
0
0
0
0
0
0
0
0
0
0
0
0
0
0
0
0
0
0
0
0
0
0
0
0
0
0
0
0
0
0
0
0
0
0
0
0
0
0
0
0
0
0
0
0
0
0
0
0
0
0
0
0
0
0
0
0
0
0
0
0
0
0
0
0
0
0
0
0
0
0
0
0
0
0
0
0
0
0
0
0
0
0
0
0
0
0
0
0
0
0
0
0
0
0
0
0
0
0
0
0
0
0
0
0
0
0
0
0
0
0
0
0
0
0
0
0
0
0
0
0
0
0
0
0
0
0
0
0
0
0
0
0
0
0
0
0
0
0
0
0
0
0
0
0
0
0
0
0
0
0
0
0
0
0
0
0
0
0
0
0
0
0
0
0
0
0
0
0
0
0
0
0
0
0
0
0
0
0
0
0
0
0
0
0
0
0
0
0
0
0
0
0
0
0
0
0
0
0
0
0
0
0
0
0
0
0
0
0
0
0
0
0
0
0
0
0
0
0
0
0
0
0
0
0
0
0
0
0
0
0
0
0
0
0
0
0
0
0
0
0
0
0
0
0
0
0
0
0
0
0
0
0
0
0
0
0
0
0
0
0
0
0
0
0
0
0
0
0
0
0
0
0
0
0
0
0
0
0
0
0
0
0
0
0
0
0
0
0
0
0
0
0
0
0
0
0
0
0
0
0
0
0
0
0
0
0
0
0
0
0
0
0
0
0
0
0
0
0
0
0
0
0
0
0
0
0
0
0
0
0
0
0
0
0
0
0
0
0
0
0
0
0
0
0
0
0
0
0
0
0
0
0
0
0
0
0
0
0
0
0
0
0
0
0
0
0
0
0
0
0
0
0
0
0
0
0
0
0
0
0
0
0
0
0
0
0
0
0
0
0
0
0
0
0
0
0
0
0
0
0
0
0
0
0
0
0
0
0
0
0
0
0
0
0
0
0
0
0
0
0
0
0
0
0
0
0
0
0
0
0
0
0
0
0
0
0
0
0
0
0
0
0
0
0
0
0
0
0
0
0
0
0
0
0
0
0
0
0
0
0
0
0
0
0
0
0
0
0
0
0
0
0
0
0
0
0
0
0
0
0
0
0
0
0
0
0
0
0
0
0
0
0
0
0
0
0
0
0
0
0
0
0
0
0
0
0
0
0
0
0
0
0
0
0
0
0
0
0
0
0
0
0
0
0
0
0
0
0
0
0
0
0
0
0
0
0
0
0
0
0
0
0
0
0
0
0
0
0
0
0
0
0
0
0
0
0
0
0
0
0
0
0
0
0
0
0
0
0
0
0
0
0
0
0
0
0
0
0
0
0
0
0
0
0
0
0
0
0
0
0
0
0
0
0
0
0
0
0
0
0
0
0
0
0
0
0
0
0
0
0
0
0
0
0
0
0
0
0
0
0
0
0
0
0
0
0
0
0
0
0
0
0
0
0
0
0
0
0
0
0
0
0
0
0
0
0
0
0
0
0
0
0
0
0
0
0
0
0
0
0
0
0
0
0
0
0
0
0
0
0
0
0
0
0
0
0
0
0
0
0
0
0
0
0
0
0
0
0
0
0
0
0
0
0
0
0
0
0
0
0
0
0
0
0
0
0
0
0
0
0
0
0
0
0
0
0
0
0
0
0
0
0
0
0
0
0
0
0
0
0
0
0
0
0
0
0
0
0
0
0
0
0
0
0.0776415
0.052903
0.0436505
0.0357426
0.03048
0.0271088
0.0248019
0.023116
0.0218008
0.0207277
0.0198235
0.0190436
0.0183596
0.0177519
0.0172066
0.0167134
0.0162643
0.0158532
0.0154749
0.0151254
0.0148012
0.0144993
0.0142174
0.0139533
0.0137051
0.0134714
0.0132506
0.0130416
0.0128434
0.0126549
0.0124753
0.0123039
0.0121401
0.0119833
0.0118328
0.0116884
0.0115494
0.0114156
0.0112866
0.0111621
0.0110418
0.0109254
0.0108128
0.0107037
0.0105979
0.0104952
0.0103955
0.0102987
0.0102045
0.0101129
0.0100238
0.00993702
0.0098525
0.00977015
0.00968989
0.00961163
0.00953532
0.00946088
0.00938825
0.00931738
0.00924821
0.0091807
0.0091148
0.00905046
0.00898765
0.00892632
0.00886645
0.00880799
0.00875091
0.00869519
0.00864079
0.00858768
0.00853584
0.00848524
0.00843585
0.00838766
0.00834063
0.00829474
0.00824997
0.0082063
0.00816371
0.00812218
0.00808168
0.0080422
0.00800371
0.00796619
0.00792963
0.00789401
0.0078593
0.0078255
0.00779257
0.0077605
0.00772928
0.00769888
0.00766929
0.00764049
0.00761246
0.00758519
0.00755866
0.00753284
0.00750774
0.00748332
0.00745957
0.00743648
0.00741403
0.0073922
0.00737098
0.00735036
0.00733032
0.00731084
0.00729191
0.00727352
0.00725566
0.0072383
0.00722144
0.00720506
0.00718915
0.0071737
0.0071587
0.00714413
0.00712998
0.00711625
0.00710291
0.00708995
0.00707738
0.00706517
0.00705331
0.0070418
0.00703062
0.00701977
0.00700924
0.00699901
0.00698909
0.00697946
0.00697012
0.00696106
0.00695227
0.00694375
0.00693549
0.00692748
0.00691972
0.00691219
0.0069049
0.00689782
0.00689097
0.00688434
0.00687793
0.00687174
0.00686578
0.00686005
0.00685455
0.00684929
0.00684426
0.00683945
0.00683484
0.00683038
0.00682604
0.00682174
0.00681742
0.00681301
0.00680845
0.00680372
0.00679884
0.00679393
0.00678917
0.00678487
0.00678148
0.00677955
0.00677975
0.00678279
0.00678934
0.00679996
0.00681489
0.00683391
0.0068561
0.00687966
0.00690164
0.0069178
0.00692249
0.00690862
0.00686781
0.00679069
0.00666746
0.00648874
0.00624664
0.00593631
0.0055577
0.00511764
0.00463211
0.00412848
0.00364731
0.00324335
0.00298511
0.00295246
0.00323198
0.00391023
0.00506569
0.00675958
0.00902879
0.011881
0.0152921
0.0192062
0.0235408
0.0281941
0.0330482
0.0379705
0.0428274
0.0474959
0.0518541
0.0557673
0.0591098
0.0618102
0.0638683
0.0653201
0.066192
0.0664871
0.0662041
0.0653588
0.0639916
0.0621611
0.0599352
0.0573846
0.0545792
0.0515866
0.048471
0.0452918
0.0421025
0.0389501
0.035874
0.0329062
0.0300713
0.0273871
0.0248652
0.0225121
0.0203298
0.0183167
0.0164686
0.0147791
0.0132404
0.0118437
0.0105796
0.00943856
0.00841104
0.00748766
0.00665943
0.00591779
0.00525467
0.00466256
0.00413451
0.00366408
0.00324541
0.00287314
0.00254238
0.00224873
0.00198819
0.00175718
0.00155246
0.00137114
0.00121061
0.00106856
0.000942908
0.000831806
0.000733606
0.000646837
0.000570193
0.000502514
0.000442769
0.000390041
0.000343519
0.000302483
0.000266295
0.000234389
0.000206266
0.000181481
0.000159645
0.00014041
0.000123469
0.000108552
9.54208e-05
8.38626e-05
7.36913e-05
6.47423e-05
5.68701e-05
4.99465e-05
4.38582e-05
3.85055e-05
3.38003e-05
2.9665e-05
2.60313e-05
2.28389e-05
2.00347e-05
1.75718e-05
1.54092e-05
1.35105e-05
1.18438e-05
1.03811e-05
9.0975e-06
7.97135e-06
6.98347e-06
6.11705e-06
5.35726e-06
4.6911e-06
4.10712e-06
3.59527e-06
3.14671e-06
2.75369e-06
2.40938e-06
2.10779e-06
1.84366e-06
1.61239e-06
1.4099e-06
1.23266e-06
1.07753e-06
9.41782e-07
8.2301e-07
7.19107e-07
6.28227e-07
5.48749e-07
4.79254e-07
4.18497e-07
3.65388e-07
3.18971e-07
2.7841e-07
2.4297e-07
2.1201e-07
1.84969e-07
1.61352e-07
1.4073e-07
1.22726e-07
1.0701e-07
9.3293e-08
8.13224e-08
7.08776e-08
6.17654e-08
5.3817e-08
4.68848e-08
4.08397e-08
3.5569e-08
3.09741e-08
2.6969e-08
2.34785e-08
2.04369e-08
1.77869e-08
1.54783e-08
1.34675e-08
1.17163e-08
1.01914e-08
8.86372e-09
7.70796e-09
6.70199e-09
5.82652e-09
5.06472e-09
4.40193e-09
3.82535e-09
3.32385e-09
2.88771e-09
2.50845e-09
2.17872e-09
1.89208e-09
1.64293e-09
1.4264e-09
1.23824e-09
1.07476e-09
9.32745e-10
8.09387e-10
7.02251e-10
6.09218e-10
5.2844e-10
4.58313e-10
3.97441e-10
3.4461e-10
2.98762e-10
2.58981e-10
2.24468e-10
1.9453e-10
1.68563e-10
1.46044e-10
1.26517e-10
1.09587e-10
9.49105e-11
8.21892e-11
7.1164e-11
6.16101e-11
5.33321e-11
4.61605e-11
3.99483e-11
3.45678e-11
2.99083e-11
2.58736e-11
2.23804e-11
1.93565e-11
1.6739e-11
1.44737e-11
1.25135e-11
1.08173e-11
9.34998e-12
8.08067e-12
6.98282e-12
6.03338e-12
5.2124e-12
4.50258e-12
3.88894e-12
3.35853e-12
2.9001e-12
2.50395e-12
2.16164e-12
1.8659e-12
1.61043e-12
1.38977e-12
1.1992e-12
1.03463e-12
8.9254e-13
7.69869e-13
6.63978e-13
5.72582e-13
4.93706e-13
4.25645e-13
3.66921e-13
3.16262e-13
2.72563e-13
2.34874e-13
2.02372e-13
1.74346e-13
1.50183e-13
1.29353e-13
1.11399e-13
9.59252e-14
8.25906e-14
7.11009e-14
6.12022e-14
5.26751e-14
4.53306e-14
3.90053e-14
3.35585e-14
2.88688e-14
2.48314e-14
2.1356e-14
1.83647e-14
1.57905e-14
1.35754e-14
1.16696e-14
1.00301e-14
8.61987e-15
7.40699e-15
6.36398e-15
5.46716e-15
4.69613e-15
4.03334e-15
3.46365e-15
2.97406e-15
2.55334e-15
2.19187e-15
1.88132e-15
1.61457e-15
1.38545e-15
1.18869e-15
1.01974e-15
8.74684e-16
7.50158e-16
6.4327e-16
5.51536e-16
4.72818e-16
4.0528e-16
3.47347e-16
2.97665e-16
2.55072e-16
2.18569e-16
1.87294e-16
1.60503e-16
1.37553e-16
1.17885e-16
1.01015e-16
8.65279e-17
7.40673e-17
6.33327e-17
5.40725e-17
4.60783e-17
3.91793e-17
3.32376e-17
2.81456e-17
2.38239e-17
2.02173e-17
1.72884e-17
1.50027e-17
1.33103e-17
1.21222e-17
1.12938e-17
1.06207e-17
9.85672e-18
8.75772e-18
7.14432e-18
4.97003e-18
2.37235e-18
-3.15815e-19
-2.6108e-18
-3.98057e-18
-3.98808e-18
-2.44084e-18
4.97643e-19
4.27675e-18
8.03325e-18
1.0769e-17
1.15976e-17
9.99885e-18
6.00998e-18
2.88745e-19
-5.98441e-18
-1.13573e-17
-1.44566e-17
-1.43509e-17
-1.08286e-17
-4.50678e-18
3.26843e-18
1.07186e-17
1.60573e-17
1.79368e-17
1.57999e-17
1.0042e-17
1.9359e-18
-6.66536e-18
-1.37754e-17
-1.77567e-17
-1.77162e-17
-1.37146e-17
-6.73857e-18
1.55345e-18
9.24256e-18
1.46121e-17
1.65455e-17
1.47638e-17
9.85173e-18
3.07698e-18
-3.94324e-18
-9.63805e-18
-1.28422e-17
-1.30351e-17
-1.04116e-17
-5.78e-18
-3.26728e-19
4.68634e-18
8.21394e-18
9.64175e-18
8.8806e-18
6.33111e-18
2.74069e-18
-1.00186e-18
-4.07999e-18
-5.92105e-18
-6.29206e-18
-5.3072e-18
-3.35695e-18
-9.85352e-19
1.24989e-18
2.9004e-18
3.70827e-18
3.63321e-18
2.82795e-18
1.57528e-18
2.06752e-19
-9.76102e-19
-1.76098e-18
-2.05486e-18
-1.88313e-18
-1.36351e-18
-6.64752e-19
3.81007e-20
6.01581e-19
9.37912e-19
1.02274e-18
8.87982e-19
6.04162e-19
2.58153e-19
-6.8084e-20
-3.13398e-19
-4.4573e-19
-4.62603e-19
-3.85356e-19
-2.49674e-19
-9.51961e-20
4.34173e-20
1.42413e-19
1.91302e-19
1.91968e-19
1.5544e-19
9.75543e-20
3.4646e-20
-1.98418e-20
-5.73531e-20
-7.47447e-20
-7.35919e-20
-5.87131e-20
-3.6409e-20
-1.28442e-20
7.13537e-21
2.06207e-20
2.67133e-20
2.61795e-20
2.0865e-20
1.30489e-20
4.88435e-21
-1.98734e-21
-6.61712e-21
-8.7439e-21
-8.65653e-21
-6.98601e-21
-4.48871e-21
-1.86562e-21
3.56661e-22
1.87732e-21
2.61436e-21
2.65721e-21
2.20001e-21
1.4741e-21
6.93156e-22
1.7898e-23
-4.58592e-22
-7.08217e-22
-7.53609e-22
-6.48506e-22
-4.58184e-22
-2.43675e-22
-5.16506e-23
8.98559e-23
1.70872e-22
1.95685e-22
1.77556e-22
1.33413e-22
7.95508e-23
2.88165e-23
-1.06516e-23
-3.54029e-23
-4.57862e-23
-4.46446e-23
-3.59761e-23
-2.38202e-23
-1.15063e-23
-1.28239e-24
5.73288e-24
9.37401e-24
1.0137e-23
8.86527e-24
6.47851e-24
3.78062e-24
1.3544e-24
-4.67081e-25
-1.57379e-24
-2.02089e-24
-1.96112e-24
-1.58321e-24
-1.06551e-24
-5.47869e-25
-1.20385e-25
1.74849e-25
3.34036e-25
3.78584e-25
3.42226e-25
2.60601e-25
1.64276e-25
7.52138e-26
6.06625e-27
-3.86262e-26
-6.02379e-26
-6.36281e-26
-5.49979e-26
-4.03084e-26
-2.43332e-26
-1.02736e-26
2.04522e-28
6.67932e-27
9.57432e-27
9.76372e-27
8.24958e-27
5.94036e-27
3.5306e-27
1.46414e-27
-4.50702e-29
-9.60462e-28
-1.36011e-27
-1.3787e-27
-1.16241e-27
-8.39563e-28
-5.05849e-28
-2.20981e-28
-1.28338e-29
1.14628e-28
1.72497e-28
1.79041e-28
1.53758e-28
1.13601e-28
7.1165e-29
3.43335e-29
6.86896e-30
-1.05423e-29
-1.91523e-29
-2.11523e-29
-1.89237e-29
-1.45652e-29
-9.66108e-30
-5.2315e-30
-1.79707e-30
4.99931e-31
1.76176e-30
2.21658e-30
2.12839e-30
1.73876e-30
1.23673e-30
7.49981e-31
3.49894e-31
6.37002e-32
-1.11245e-31
-1.94346e-31
-2.11494e-31
-1.88106e-31
-1.45219e-31
-9.79729e-32
-5.57015e-32
-2.29295e-32
-7.19273e-34
1.20028e-32
1.73498e-32
1.76849e-32
1.51357e-32
1.13574e-32
7.47604e-33
4.14112e-33
1.63144e-33
-2.60805e-35
-9.49771e-34
-1.32045e-33
-1.32531e-33
-1.12561e-33
-8.42883e-34
-5.57515e-34
-3.1449e-34
-1.32163e-34
-1.12974e-35
5.71678e-35
8.63008e-35
8.93441e-35
7.75818e-35
5.94765e-35
4.06365e-35
2.42429e-35
1.1661e-35
3.05529e-36
-2.08901e-36
-4.57718e-36
-5.24906e-36
-4.83496e-36
-3.89446e-36
-2.80958e-36
-1.8084e-36
-1.00136e-36
-4.18842e-37
-4.35355e-38
1.64829e-37
2.52779e-37
2.63185e-37
2.30524e-37
1.79616e-37
1.26416e-37
7.97672e-38
4.34139e-38
1.78307e-38
1.68668e-39
-7.10836e-39
-1.07376e-38
-1.11105e-38
-9.71078e-39
-7.57894e-39
-5.36942e-39
-3.43759e-39
-1.92975e-39
-8.61168e-40
-1.76287e-40
2.0941e-40
3.8326e-40
4.21379e-40
3.82994e-40
3.09964e-40
2.29061e-40
1.55357e-40
9.56811e-41
5.16021e-41
2.17388e-41
3.3778e-42
-6.49783e-42
-1.06343e-41
-1.12496e-41
-9.97666e-42
-7.91726e-42
-5.74551e-42
-3.8216e-42
-2.29453e-42
-1.18453e-42
-4.43408e-43
5.12957e-45
2.40922e-43
3.34407e-43
3.41366e-43
3.02329e-43
2.44414e-43
1.84145e-43
1.3036e-43
8.67624e-44
5.39252e-44
3.07425e-44
1.53972e-44
5.95061e-45
6.57355e-46
-1.8998e-45
-2.78608e-45
-2.74951e-45
-2.2807e-45
-1.67721e-45
-1.10139e-45
-6.27301e-46
-2.75779e-46
-3.89333e-47
1.0394e-46
1.76814e-46
2.01829e-46
1.97063e-46
1.76015e-46
1.47999e-46
1.18916e-46
9.2122e-47
6.92045e-47
5.06182e-47
3.61583e-47
2.52902e-47
1.73618e-47
1.17297e-47
7.8243e-48
5.17501e-48
3.41302e-48
2.26097e-48
1.51764e-48
1.04168e-48
7.36774e-49
5.39164e-49
4.07841e-49
3.17176e-49
2.51591e-49
2.01863e-49
1.62651e-49
1.3089e-49
1.04794e-49
8.32682e-50
6.55685e-50
5.11271e-50
3.94651e-50
3.01559e-50
2.28139e-50
1.70926e-50
1.26866e-50
9.33156e-51
6.80448e-51
4.92058e-51
3.52993e-51
2.51294e-51
1.77581e-51
1.24604e-51
8.68365e-52
6.01198e-52
4.13596e-52
2.82796e-52
1.92218e-52
1.29903e-52
8.73029e-53
5.83565e-53
3.88033e-53
2.56702e-53
1.68978e-53
1.10694e-53
7.2171e-54
4.68378e-54
3.02601e-54
1.94638e-54
1.24655e-54
7.94978e-55
5.04894e-55
3.19359e-55
2.01199e-55
1.26262e-55
7.89314e-56
4.91568e-56
3.05003e-56
1.88554e-56
1.16146e-56
7.12904e-57
4.36057e-57
2.65803e-57
1.61475e-57
9.77676e-58
5.9e-58
3.5489e-58
2.12784e-58
1.27176e-58
7.57722e-59
4.50056e-59
2.66498e-59
1.57328e-59
9.26009e-60
5.43424e-60
3.17972e-60
1.85516e-60
1.07926e-60
6.26087e-61
3.62178e-61
2.08929e-61
1.20192e-61
6.89553e-62
3.94531e-62
2.25127e-62
1.2812e-62
7.27212e-63
4.11688e-63
2.3246e-63
1.30921e-63
7.35465e-64
4.12111e-64
2.30343e-64
1.28425e-64
7.14254e-65
3.96266e-65
2.19311e-65
1.21083e-65
6.66901e-66
3.66439e-66
2.00869e-66
1.0985e-66
5.99336e-67
3.26235e-67
1.77169e-67
9.59953e-68
5.18944e-68
2.79902e-68
1.50631e-68
8.08816e-69
4.3333e-69
2.31647e-69
1.2356e-69
6.5763e-70
3.49253e-70
1.8508e-70
9.78689e-71
5.16418e-71
2.71916e-71
1.42872e-71
7.49114e-72
3.91957e-72
2.04656e-72
1.06638e-72
5.54502e-73
2.87742e-73
1.49011e-73
7.70103e-74
3.97194e-74
2.04448e-74
1.05025e-74
5.38442e-75
2.75501e-75
1.40686e-75
7.17006e-76
3.64708e-76
1.8515e-76
9.3812e-77
4.74412e-77
2.39451e-77
1.20628e-77
6.06528e-78
3.0439e-78
1.52471e-78
7.62305e-79
3.80413e-79
1.89484e-79
9.42063e-80
4.67503e-80
2.31573e-80
1.14497e-80
5.65073e-81
2.78371e-81
1.36884e-81
6.71891e-82
3.29201e-82
1.61006e-82
7.86047e-83
3.83072e-83
1.86355e-83
9.04966e-84
4.38691e-84
2.12286e-84
1.02548e-84
4.94505e-85
2.38047e-85
1.14393e-85
5.48769e-86
2.62804e-86
1.2564e-86
5.99631e-87
2.85693e-87
1.35887e-87
6.4524e-88
3.05867e-88
1.44749e-88
6.83862e-89
3.2255e-89
1.51881e-89
7.13983e-90
3.35085e-90
1.57002e-90
7.34415e-91
3.42978e-91
1.59912e-91
7.44371e-92
3.45933e-92
1.60506e-92
7.43515e-93
3.43866e-93
1.58779e-93
7.31981e-94
3.3691e-94
1.54824e-94
7.10352e-95
3.25403e-95
1.48828e-95
6.79619e-96
3.09859e-96
1.41054e-96
6.41102e-97
2.90934e-97
1.31822e-97
5.96363e-98
2.69378e-98
1.21492e-98
5.47097e-99
2.4599e-99
1.10435e-99
4.95037e-100
2.21568e-100
9.90194e-101
4.41852e-101
1.9687e-101
8.7585e-102
3.89071e-102
1.72576e-102
7.64332e-103
3.38017e-103
1.49263e-103
6.58145e-104
2.89768e-104
1.27392e-104
5.59232e-105
2.45136e-105
1.07297e-105
4.6896e-106
2.04669e-106
8.91942e-107
3.88144e-107
1.68664e-107
7.31858e-108
3.17107e-108
1.37203e-108
5.92787e-109
2.55749e-109
1.10182e-109
4.74015e-110
2.03637e-110
8.73588e-111
3.74235e-111
1.60092e-111
6.8389e-112
2.91739e-112
1.24278e-112
5.28674e-113
2.24583e-113
9.52716e-114
4.03597e-114
1.70738e-114
7.21298e-115
3.04299e-115
1.28201e-115
5.39366e-116
2.26612e-116
9.50801e-117
3.98386e-117
1.66697e-117
6.96568e-118
2.90677e-118
1.21135e-118
5.04134e-119
2.09525e-119
8.69648e-120
3.6047e-120
1.49215e-120
6.16849e-121
2.54663e-121
1.04996e-121
4.32323e-122
1.77773e-122
7.30048e-123
2.99408e-123
1.22632e-123
5.01619e-124
2.04916e-124
8.36004e-125
3.40623e-125
1.38604e-125
5.63261e-126
2.28603e-126
9.26595e-127
3.75092e-127
1.51644e-127
6.12282e-128
2.469e-128
9.94335e-129
3.99934e-129
1.60653e-129
6.44518e-130
2.58243e-130
1.0334e-130
4.13008e-131
1.64854e-131
6.57188e-132
2.61657e-132
1.04047e-132
4.13217e-133
1.63901e-133
6.49296e-134
2.56898e-134
1.01516e-134
4.00655e-135
1.5793e-135
6.21754e-136
2.44476e-136
9.60096e-137
3.7658e-137
1.47525e-137
5.77216e-138
2.25568e-138
8.80409e-139
3.4321e-139
1.3363e-139
5.19658e-140
2.01838e-140
7.82998e-141
3.03383e-141
1.17407e-141
4.5381e-142
1.75197e-142
6.75551e-143
2.60175e-143
1.00081e-143
3.84518e-144
1.47558e-144
5.65571e-145
2.16518e-145
8.27912e-146
3.16197e-146
1.20619e-146
4.59575e-147
1.74898e-147
6.64813e-148
2.52407e-148
9.57177e-149
3.62554e-149
1.37165e-149
5.18325e-150
1.95639e-150
7.37563e-151
2.77739e-151
1.04465e-151
3.92461e-152
1.47271e-152
5.51998e-153
2.06659e-153
7.728e-154
2.88656e-154
1.07694e-154
4.01333e-155
1.49389e-155
5.55437e-156
2.06278e-156
7.652e-157
2.83531e-157
1.04938e-157
3.87944e-158
1.43256e-158
5.28399e-159
1.94679e-159
7.16451e-160
2.63368e-160
9.6705e-161
3.54688e-161
1.29944e-161
4.75528e-162
1.73824e-162
6.34684e-163
2.31483e-163
8.43329e-164
3.06895e-164
1.11558e-164
4.05068e-165
1.46917e-165
5.32276e-166
1.92628e-166
6.96343e-167
2.51448e-167
9.06971e-168
3.26784e-168
1.17612e-168
4.2283e-169
1.51846e-169
5.44713e-170
1.9519e-170
6.98669e-171
2.49812e-171
8.92243e-172
3.18332e-172
1.13451e-172
4.0389e-173
1.43631e-173
5.10231e-174
1.81057e-174
6.41794e-175
2.27253e-175
8.03815e-176
2.84012e-176
1.00243e-176
3.5343e-177
1.24477e-177
4.3794e-178
1.53913e-178
5.40348e-179
1.89501e-179
6.63876e-180
2.32329e-180
8.12192e-181
2.83633e-181
9.89452e-182
3.44807e-182
1.20033e-182
4.17413e-183
1.45003e-183
5.03191e-184
1.74435e-184
6.0406e-185
2.08965e-185
7.22126e-186
2.49288e-186
8.59679e-187
2.96156e-187
1.01919e-187
3.50379e-188
1.20329e-188
4.12817e-189
1.4148e-189
4.84377e-190
1.65663e-190
5.66005e-191
1.93183e-191
6.58678e-192
2.24353e-192
7.63389e-193
2.59487e-193
8.81137e-194
2.98901e-194
1.01291e-194
3.42903e-195
1.15966e-195
3.91787e-196
1.3223e-196
4.4583e-197
1.50166e-197
5.05282e-198
1.69847e-198
5.70357e-199
1.91336e-199
6.41228e-200
2.1468e-200
7.1802e-201
2.39909e-201
8.00796e-202
2.67033e-202
8.89557e-203
2.9604e-203
9.84227e-204
3.26896e-204
1.08465e-204
3.59537e-205
1.1906e-205
3.93876e-206
1.30174e-206
4.29793e-207
1.41765e-207
4.67142e-208
1.53781e-208
5.05744e-209
1.66162e-209
5.45392e-210
1.78839e-210
5.85853e-211
1.91731e-211
6.26864e-212
2.04753e-212
6.68138e-213
2.17811e-213
7.09369e-214
2.30804e-214
7.50231e-215
2.43627e-215
7.90383e-216
2.56171e-216
8.29479e-217
2.68325e-217
8.67163e-218
2.79977e-218
9.03085e-219
2.91017e-219
9.36897e-220
3.01336e-220
9.68267e-221
3.10831e-221
9.96876e-222
3.19407e-222
1.02243e-222
3.26974e-223
1.04467e-223
3.33452e-224
1.06335e-224
3.38774e-225
1.07829e-225
3.42884e-226
1.08931e-226
3.45739e-227
1.09632e-227
3.47309e-228
1.09923e-228
3.47579e-229
1.09803e-229
3.46551e-230
1.09273e-230
3.44237e-231
1.08342e-231
3.40666e-232
1.07018e-232
3.35881e-233
1.0532e-233
3.29936e-234
1.03264e-234
3.22899e-235
1.00875e-235
3.14847e-236
9.8178e-237
3.05865e-237
9.52018e-238
2.96048e-238
9.19772e-239
2.85496e-239
8.85365e-240
2.74313e-240
8.49131e-241
2.62607e-241
8.11411e-242
2.50484e-242
7.72547e-243
2.38053e-243
7.32873e-244
2.25418e-244
6.92718e-245
2.12682e-245
6.52396e-246
1.9994e-246
6.12204e-247
1.87284e-247
5.7242e-248
1.74798e-248
5.33298e-249
1.62559e-249
4.95068e-250
1.50636e-250
4.57934e-251
1.39088e-251
4.22073e-252
1.27967e-252
3.87634e-253
1.17316e-253
3.54738e-254
1.0717e-254
3.23482e-255
9.75536e-256
2.93935e-256