# vtk DataFile Version 2.0
FlowField
ASCII
DATASET STRUCTURED_GRID
DIMENSIONS 1602 1 52
POINTS 83304 float
0 0 0
0.1 0 0
0.2 0 0
0.3 0 0
0.4 0 0
0.5 0 0
0.6 0 0
0.7 0 0
0.8 0 0
0.9 0 0
1 0 0
1.1 0 0
1.2 0 0
1.3 0 0
1.4 0 0
1.5 0 0
1.6 0 0
1.7 0 0
1.8 0 0
1.9 0 0
2 0 0
2.1 0 0
2.2 0 0
2.3 0 0
2.4 0 0
2.5 0 0
2.6 0 0
2.7 0 0
2.8 0 0
2.9 0 0
3 0 0
3.1 0 0
3.2 0 0
3.3 0 0
3.4 0 0
3.5 0 0
3.6 0 0
3.7 0 0
3.8 0 0
3.9 0 0
4 0 0
4.1 0 0
4.2 0 0
4.3 0 0
4.4 0 0
4.5 0 0
4.6 0 0
4.7 0 0
4.8 0 0
4.9 0 0
5 0 0
5.1 0 0
5.2 0 0
5.3 0 0
5.4 0 0
5.5 0 0
5.6 0 0
5.7 0 0
5.8 0 0
5.9 0 0
6 0 0
6.1 0 0
6.2 0 0
6.3 0 0
6.4 0 0
6.5 0 0
6.6 0 0
6.7 0 0
6.8 0 0
6.9 0 0
7 0 0
7.1 0 0
7.2 0 0
7.3 0 0
7.4 0 0
7.5 0 0
7.6 0 0
7.7 0 0
7.8 0 0
7.9 0 0
8 0 0
8.1 0 0
8.2 0 0
8.3 0 0
8.4 0 0
8.5 0 0
8.6 0 0
8.7 0 0
8.8 0 0
8.9 0 0
9 0 0
9.1 0 0
9.2 0 0
9.3 0 0
9.4 0 0
9.5 0 0
9.6 0 0
9.7 0 0
9.8 0 0
9.9 0 0
10 0 0
10.1 0 0
10.2 0 0
10.3 0 0
10.4 0 0
10.5 0 0
10.6 0 0
10.7 0 0
10.8 0 0
10.9 0 0
11 0 0
11.1 0 0
11.2 0 0
11.3 0 0
11.4 0 0
11.5 0 0
11.6 0 0
11.7 0 0
11.8 0 0
11.9 0 0
12 0 0
12.1 0 0
12.2 0 0
12.3 0 0
12.4 0 0
12.5 0 0
12.6 0 0
12.7 0 0
12.8 0 0
12.9 0 0
13 0 0
13.1 0 0
13.2 0 0
13.3 0 0
13.4 0 0
13.5 0 0
13.6 0 0
13.7 0 0
13.8 0 0
13.9 0 0
14 0 0
14.1 0 0
14.2 0 0
14.3 0 0
14.4 0 0
14.5 0 0
14.6 0 0
14.7 0 0
14.8 0 0
14.9 0 0
15 0 0
15.1 0 0
15.2 0 0
15.3 0 0
15.4 0 0
15.5 0 0
15.6 0 0
15.7 0 0
15.8 0 0
15.9 0 0
16 0 0
16.1 0 0
16.2 0 0
16.3 0 0
16.4 0 0
16.5 0 0
16.6 0 0
16.7 0 0
16.8 0 0
16.9 0 0
17 0 0
17.1 0 0
17.2 0 0
17.3 0 0
17.4 0 0
17.5 0 0
17.6 0 0
17.7 0 0
17.8 0 0
17.9 0 0
18 0 0
18.1 0 0
18.2 0 0
18.3 0 0
18.4 0 0
18.5 0 0
18.6 0 0
18.7 0 0
18.8 0 0
18.9 0 0
19 0 0
19.1 0 0
19.2 0 0
19.3 0 0
19.4 0 0
19.5 0 0
19.6 0 0
19.7 0 0
19.8 0 0
19.9 0 0
20 0 0
20.1 0 0
20.2 0 0
20.3 0 0
20.4 0 0
20.5 0 0
20.6 0 0
20.7 0 0
20.8 0 0
20.9 0 0
21 0 0
21.1 0 0
21.2 0 0
21.3 0 0
21.4 0 0
21.5 0 0
21.6 0 0
21.7 0 0
21.8 0 0
21.9 0 0
22 0 0
22.1 0 0
22.2 0 0
22.3 0 0
22.4 0 0
22.5 0 0
22.6 0 0
22.7 0 0
22.8 0 0
22.9 0 0
23 0 0
23.1 0 0
23.2 0 0
23.3 0 0
23.4 0 0
23.5 0 0
23.6 0 0
23.7 0 0
23.8 0 0
23.9 0 0
24 0 0
24.1 0 0
24.2 0 0
24.3 0 0
24.4 0 0
24.5 0 0
24.6 0 0
24.7 0 0
24.8 0 0
24.9 0 0
25 0 0
25.1 0 0
25.2 0 0
25.3 0 0
25.4 0 0
25.5 0 0
25.6 0 0
25.7 0 0
25.8 0 0
25.9 0 0
26 0 0
26.1 0 0
26.2 0 0
26.3 0 0
26.4 0 0
26.5 0 0
26.6 0 0
26.7 0 0
26.8 0 0
26.9 0 0
27 0 0
27.1 0 0
27.2 0 0
27.3 0 0
27.4 0 0
27.5 0 0
27.6 0 0
27.7 0 0
27.8 0 0
27.9 0 0
28 0 0
28.1 0 0
28.2 0 0
28.3 0 0
28.4 0 0
28.5 0 0
28.6 0 0
28.7 0 0
28.8 0 0
28.9 0 0
29 0 0
29.1 0 0
29.2 0 0
29.3 0 0
29.4 0 0
29.5 0 0
29.6 0 0
29.7 0 0
29.8 0 0
29.9 0 0
30 0 0
30.1 0 0
30.2 0 0
30.3 0 0
30.4 0 0
30.5 0 0
30.6 0 0
30.7 0 0
30.8 0 0
30.9 0 0
31 0 0
31.1 0 0
31.2 0 0
31.3 0 0
31.4 0 0
31.5 0 0
31.6 0 0
31.7 0 0
31.8 0 0
31.9 0 0
32 0 0
32.1 0 0
32.2 0 0
32.3 0 0
32.4 0 0
32.5 0 0
32.6 0 0
32.7 0 0
32.8 0 0
32.9 0 0
33 0 0
33.1 0 0
33.2 0 0
33.3 0 0
33.4 0 0
33.5 0 0
33.6 0 0
33.7 0 0
33.8 0 0
33.9 0 0
34 0 0
34.1 0 0
34.2 0 0
34.3 0 0
34.4 0 0
34.5 0 0
34.6 0 0
34.7 0 0
34.8 0 0
34.9 0 0
35 0 0
35.1 0 0
35.2 0 0
35.3 0 0
35.4 0 0
35.5 0 0
35.6 0 0
35.7 0 0
35.8 0 0
35.9 0 0
36 0 0
36.1 0 0
36.2 0 0
36.3 0 0
36.4 0 0
36.5 0 0
36.6 0 0
36.7 0 0
36.8 0 0
36.9 0 0
37 0 0
37.1 0 0
37.2 0 0
37.3 0 0
37.4 0 0
37.5 0 0
37.6 0 0
37.7 0 0
37.8 0 0
37.9 0 0
38 0 0
38.1 0 0
38.2 0 0
38.3 0 0
38.4 0 0
38.5 0 0
38.6 0 0
38.7 0 0
38.8 0 0
38.9 0 0
39 0 0
39.1 0 0
39.2 0 0
39.3 0 0
39.4 0 0
39.5 0 0
39.6 0 0
39.7 0 0
39.8 0 0
39.9 0 0
40 0 0
40.1 0 0
40.2 0 0
40.3 0 0
40.4 0 0
40.5 0 0
40.6 0 0
40.7 0 0
40.8 0 0
40.9 0 0
41 0 0
41.1 0 0
41.2 0 0
41.3 0 0
41.4 0 0
41.5 0 0
41.6 0 0
41.7 0 0
41.8 0 0
41.9 0 0
42 0 0
42.1 0 0
42.2 0 0
42.3 0 0
42.4 0 0
42.5 0 0
42.6 0 0
42.7 0 0
42.8 0 0
42.9 0 0
43 0 0
43.1 0 0
43.2 0 0
43.3 0 0
43.4 0 0
43.5 0 0
43.6 0 0
43.7 0 0
43.8 0 0
43.9 0 0
44 0 0
44.1 0 0
44.2 0 0
44.3 0 0
44.4 0 0
44.5 0 0
44.6 0 0
44.7 0 0
44.8 0 0
44.9 0 0
45 0 0
45.1 0 0
45.2 0 0
45.3 0 0
45.4 0 0
45.5 0 0
45.6 0 0
45.7 0 0
45.8 0 0
45.9 0 0
46 0 0
46.1 0 0
46.2 0 0
46.3 0 0
46.4 0 0
46.5 0 0
46.6 0 0
46.7 0 0
46.8 0 0
46.9 0 0
47 0 0
47.1 0 0
47.2 0 0
47.3 0 0
47.4 0 0
47.5 0 0
47.6 0 0
47.7 0 0
47.8 0 0
47.9 0 0
48 0 0
48.1 0 0
48.2 0 0
48.3 0 0
48.4 0 0
48.5 0 0
48.6 0 0
48.7 0 0
48.8 0 0
48.9 0 0
49 0 0
49.1 0 0
49.2 0 0
49.3 0 0
49.4 0 0
49.5 0 0
49.6 0 0
49.7 0 0
49.8 0 0
49.9 0 0
50 0 0
50.1 0 0
50.2 0 0
50.3 0 0
50.4 0 0
50.5 0 0
50.6 0 0
50.7 0 0
50.8 0 0
50.9 0 0
51 0 0
51.1 0 0
51.2 0 0
51.3 0 0
51.4 0 0
51.5 0 0
51.6 0 0
51.7 0 0
51.8 0 0
51.9 0 0
52 0 0
52.1 0 0
52.2 0 0
52.3 0 0
52.4 0 0
52.5 0 0
52.6 0 0
52.7 0 0
52.8 0 0
52.9 0 0
53 0 0
53.1 0 0
53.2 0 0
53.3 0 0
53.4 0 0
53.5 0 0
53.6 0 0
53.7 0 0
53.8 0 0
53.9 0 0
54 0 0
54.1 0 0
54.2 0 0
54.3 0 0
54.4 0 0
54.5 0 0
54.6 0 0
54.7 0 0
54.8 0 0
54.9 0 0
55 0 0
55.1 0 0
55.2 0 0
55.3 0 0
55.4 0 0
55.5 0 0
55.6 0 0
55.7 0 0
55.8 0 0
55.9 0 0
56 0 0
56.1 0 0
56.2 0 0
56.3 0 0
56.4 0 0
56.5 0 0
56.6 0 0
56.7 0 0
56.8 0 0
56.9 0 0
57 0 0
57.1 0 0
57.2 0 0
57.3 0 0
57.4 0 0
57.5 0 0
57.6 0 0
57.7 0 0
57.8 0 0
57.9 0 0
58 0 0
58.1 0 0
58.2 0 0
58.3 0 0
58.4 0 0
58.5 0 0
58.6 0 0
58.7 0 0
58.8 0 0
58.9 0 0
59 0 0
59.1 0 0
59.2 0 0
59.3 0 0
59.4 0 0
59.5 0 0
59.6 0 0
59.7 0 0
59.8 0 0
59.9 0 0
60 0 0
60.1 0 0
60.2 0 0
60.3 0 0
60.4 0 0
60.5 0 0
60.6 0 0
60.7 0 0
60.8 0 0
60.9 0 0
61 0 0
61.1 0 0
61.2 0 0
61.3 0 0
61.4 0 0
61.5 0 0
61.6 0 0
61.7 0 0
61.8 0 0
61.9 0 0
62 0 0
62.1 0 0
62.2 0 0
62.3 0 0
62.4 0 0
62.5 0 0
62.6 0 0
62.7 0 0
62.8 0 0
62.9 0 0
63 0 0
63.1 0 0
63.2 0 0
63.3 0 0
63.4 0 0
63.5 0 0
63.6 0 0
63.7 0 0
63.8 0 0
63.9 0 0
64 0 0
64.1 0 0
64.2 0 0
64.3 0 0
64.4 0 0
64.5 0 0
64.6 0 0
64.7 0 0
64.8 0 0
64.9 0 0
65 0 0
65.1 0 0
65.2 0 0
65.3 0 0
65.4 0 0
65.5 0 0
65.6 0 0
65.7 0 0
65.8 0 0
65.9 0 0
66 0 0
66.1 0 0
66.2 0 0
66.3 0 0
66.4 0 0
66.5 0 0
66.6 0 0
66.7 0 0
66.8 0 0
66.9 0 0
67 0 0
67.1 0 0
67.2 0 0
67.3 0 0
67.4 0 0
67.5 0 0
67.6 0 0
67.7 0 0
67.8 0 0
67.9 0 0
68 0 0
68.1 0 0
68.2 0 0
68.3 0 0
68.4 0 0
68.5 0 0
68.6 0 0
68.7 0 0
68.8 0 0
68.9 0 0
69 0 0
69.1 0 0
69.2 0 0
69.3 0 0
69.4 0 0
69.5 0 0
69.6 0 0
69.7 0 0
69.8 0 0
69.9 0 0
70 0 0
70.1 0 0
70.2 0 0
70.3 0 0
70.4 0 0
70.5 0 0
70.6 0 0
70.7 0 0
70.8 0 0
70.9 0 0
71 0 0
71.1 0 0
71.2 0 0
71.3 0 0
71.4 0 0
71.5 0 0
71.6 0 0
71.7 0 0
71.8 0 0
71.9 0 0
72 0 0
72.1 0 0
72.2 0 0
72.3 0 0
72.4 0 0
72.5 0 0
72.6 0 0
72.7 0 0
72.8 0 0
72.9 0 0
73 0 0
73.1 0 0
73.2 0 0
73.3 0 0
73.4 0 0
73.5 0 0
73.6 0 0
73.7 0 0
73.8 0 0
73.9 0 0
74 0 0
74.1 0 0
74.2 0 0
74.3 0 0
74.4 0 0
74.5 0 0
74.6 0 0
74.7 0 0
74.8 0 0
74.9 0 0
75 0 0
75.1 0 0
75.2 0 0
75.3 0 0
75.4 0 0
75.5 0 0
75.6 0 0
75.7 0 0
75.8 0 0
75.9 0 0
76 0 0
76.1 0 0
76.2 0 0
76.3 0 0
76.4 0 0
76.5 0 0
76.6 0 0
76.7 0 0
76.8 0 0
76.9 0 0
77 0 0
77.1 0 0
77.2 0 0
77.3 0 0
77.4 0 0
77.5 0 0
77.6 0 0
77.7 0 0
77.8 0 0
77.9 0 0
78 0 0
78.1 0 0
78.2 0 0
78.3 0 0
78.4 0 0
78.5 0 0
78.6 0 0
78.7 0 0
78.8 0 0
78.9 0 0
79 0 0
79.1 0 0
79.2 0 0
79.3 0 0
79.4 0 0
79.5 0 0
79.6 0 0
79.7 0 0
79.8 0 0
79.9 0 0
80 0 0
80.1 0 0
80.2 0 0
80.3 0 0
80.4 0 0
80.5 0 0
80.6 0 0
80.7 0 0
80.8 0 0
80.9 0 0
81 0 0
81.1 0 0
81.2 0 0
81.3 0 0
81.4 0 0
81.5 0 0
81.6 0 0
81.7 0 0
81.8 0 0
81.9 0 0
82 0 0
82.1 0 0
82.2 0 0
82.3 0 0
82.4 0 0
82.5 0 0
82.6 0 0
82.7 0 0
82.8 0 0
82.9 0 0
83 0 0
83.1 0 0
83.2 0 0
83.3 0 0
83.4 0 0
83.5 0 0
83.6 0 0
83.7 0 0
83.8 0 0
83.9 0 0
84 0 0
84.1 0 0
84.2 0 0
84.3 0 0
84.4 0 0
84.5 0 0
84.6 0 0
84.7 0 0
84.8 0 0
84.9 0 0
85 0 0
85.1 0 0
85.2 0 0
85.3 0 0
85.4 0 0
85.5 0 0
85.6 0 0
85.7 0 0
85.8 0 0
85.9 0 0
86 0 0
86.1 0 0
86.2 0 0
86.3 0 0
86.4 0 0
86.5 0 0
86.6 0 0
86.7 0 0
86.8 0 0
86.9 0 0
87 0 0
87.1 0 0
87.2 0 0
87.3 0 0
87.4 0 0
87.5 0 0
87.6 0 0
87.7 0 0
87.8 0 0
87.9 0 0
88 0 0
88.1 0 0
88.2 0 0
88.3 0 0
88.4 0 0
88.5 0 0
88.6 0 0
88.7 0 0
88.8 0 0
88.9 0 0
89 0 0
89.1 0 0
89.2 0 0
89.3 0 0
89.4 0 0
89.5 0 0
89.6 0 0
89.7 0 0
89.8 0 0
89.9 0 0
90 0 0
90.1 0 0
90.2 0 0
90.3 0 0
90.4 0 0
90.5 0 0
90.6 0 0
90.7 0 0
90.8 0 0
90.9 0 0
91 0 0
91.1 0 0
91.2 0 0
91.3 0 0
91.4 0 0
91.5 0 0
91.6 0 0
91.7 0 0
91.8 0 0
91.9 0 0
92 0 0
92.1 0 0
92.2 0 0
92.3 0 0
92.4 0 0
92.5 0 0
92.6 0 0
92.7 0 0
92.8 0 0
92.9 0 0
93 0 0
93.1 0 0
93.2 0 0
93.3 0 0
93.4 0 0
93.5 0 0
93.6 0 0
93.7 0 0
93.8 0 0
93.9 0 0
94 0 0
94.1 0 0
94.2 0 0
94.3 0 0
94.4 0 0
94.5 0 0
94.6 0 0
94.7 0 0
94.8 0 0
94.9 0 0
95 0 0
95.1 0 0
95.2 0 0
95.3 0 0
95.4 0 0
95.5 0 0
95.6 0 0
95.7 0 0
95.8 0 0
95.9 0 0
96 0 0
96.1 0 0
96.2 0 0
96.3 0 0
96.4 0 0
96.5 0 0
96.6 0 0
96.7 0 0
96.8 0 0
96.9 0 0
97 0 0
97.1 0 0
97.2 0 0
97.3 0 0
97.4 0 0
97.5 0 0
97.6 0 0
97.7 0 0
97.8 0 0
97.9 0 0
98 0 0
98.1 0 0
98.2 0 0
98.3 0 0
98.4 0 0
98.5 0 0
98.6 0 0
98.7 0 0
98.8 0 0
98.9 0 0
99 0 0
99.1 0 0
99.2 0 0
99.3 0 0
99.4 0 0
99.5 0 0
99.6 0 0
99.7 0 0
99.8 0 0
99.9 0 0
100 0 0
100.1 0 0
100.2 0 0
100.3 0 0
100.4 0 0
100.5 0 0
100.6 0 0
100.7 0 0
100.8 0 0
100.9 0 0
101 0 0
101.1 0 0
101.2 0 0
101.3 0 0
101.4 0 0
101.5 0 0
101.6 0 0
101.7 0 0
101.8 0 0
101.9 0 0
102 0 0
102.1 0 0
102.2 0 0
102.3 0 0
102.4 0 0
102.5 0 0
102.6 0 0
102.7 0 0
102.8 0 0
102.9 0 0
103 0 0
103.1 0 0
103.2 0 0
103.3 0 0
103.4 0 0
103.5 0 0
103.6 0 0
103.7 0 0
103.8 0 0
103.9 0 0
104 0 0
104.1 0 0
104.2 0 0
104.3 0 0
104.4 0 0
104.5 0 0
104.6 0 0
104.7 0 0
104.8 0 0
104.9 0 0
105 0 0
105.1 0 0
105.2 0 0
105.3 0 0
105.4 0 0
105.5 0 0
105.6 0 0
105.7 0 0
105.8 0 0
105.9 0 0
106 0 0
106.1 0 0
106.2 0 0
106.3 0 0
106.4 0 0
106.5 0 0
106.6 0 0
106.7 0 0
106.8 0 0
106.9 0 0
107 0 0
107.1 0 0
107.2 0 0
107.3 0 0
107.4 0 0
107.5 0 0
107.6 0 0
107.7 0 0
107.8 0 0
107.9 0 0
108 0 0
108.1 0 0
108.2 0 0
108.3 0 0
108.4 0 0
108.5 0 0
108.6 0 0
108.7 0 0
108.8 0 0
108.9 0 0
109 0 0
109.1 0 0
109.2 0 0
109.3 0 0
109.4 0 0
109.5 0 0
109.6 0 0
109.7 0 0
109.8 0 0
109.9 0 0
110 0 0
110.1 0 0
110.2 0 0
110.3 0 0
110.4 0 0
110.5 0 0
110.6 0 0
110.7 0 0
110.8 0 0
110.9 0 0
111 0 0
111.1 0 0
111.2 0 0
111.3 0 0
111.4 0 0
111.5 0 0
111.6 0 0
111.7 0 0
111.8 0 0
111.9 0 0
112 0 0
[...]
POINT_DATA 83304

SCALARS pressure float 1
LOOKUP_TABLE default
0
0
0
0
0
0
0
0
0
0
0
0
0
0
0
0
0
0
0
0
0
0
0
0
0
0
0
0
0
0
0
0
0
0
0
0
0
0
0
0
0
0
0
0
0
0
0
0
0
0
0
0
0
0
0
0
0
0
0
0
0
0
0
0
0
0
0
0
0
0
0
0
0
0
0
0
0
0
0
0
0
0
0
0
0
0
0
0
0
0
0
0
0
0
0
0
0
0
0
0
0
0
0
0
0
0
0
0
0
0
0
0
0
0
0
0
0
0
0
0
0
0
0
0
0
0
0
0
0
0
0
0
0
0
0
0
0
0
0
0
0
0
0
0
0
0
0
0
0
0
0
0
0
0
0
0
0
0
0
0
0
0
0
0
0
0
0
0
0
0
0
0
0
0
0
0
0
0
0
0
0
0
0
0
0
0
0
0
0
0
0
0
0
0
0
0
0
0
0
0
0
0
0
0
0
0
0
0
0
0
0
0
0
0
0
0
0
0
0
0
0
0
0
0
0
0
0
0
0
0
0
0
0
0
0
0
0
0
0
0
0
0
0
0
0
0
0
0
0
0
0
0
0
0
0
0
0
0
0
0
0
0
0
0
0
0
0
0
0
0
0
0
0
0
0
0
0
0
0
0
0
0
0
0
0
0
0
0
0
0
0
0
0
0
0
0
0
0
0
0
0
0
0
0
0
0
0
0
0
0
0
0
0
0
0
0
0
0
0
0
0
0
0
0
0
0
0
0
0
0
0
0
0
0
0
0
0
0
0
0
0
0
0
0
0
0
0
0
0
0
0
0
0
0
0
0
0
0
0
0
0
0
0
0
0
0
0
0
0
0
0
0
0
0
0
0
0
0
0
0
0
0
0
0
0
0
0
0
0
0
0
0
0
0
0
0
0
0
0
0
0
0
0
0
0
0
0
0
0
0
0
0
0
0
0
0
0
0
0
0
0
0
0
0
0
0
0
0
0
0
0
0
0
0
0
0
0
0
0
0
0
0
0
0
0
0
0
0
0
0
0
0
0
0
0
0
0
0
0
0
0
0
0
0
0
0
0
0
0
0
0
0
0
0
0
0
0
0
0
0
0
0
0
0
0
0
0
0
0
0
0
0
0
0
0
0
0
0
0
0
0
0
0
0
0
0
0
0
0
0
0
0
0
0
0
0
0
0
0
0
0
0
0
0
0
0
0
0
0
0
0
0
0
0
0
0
0
0
0
0
0
0
0
0
0
0
0
0
0
0
0
0
0
0
0
0
0
0
0
0
0
0
0
0
0
0
0
0
0
0
0
0
0
0
0
0
0
0
0
0
0
0
0
0
0
0
0
0
0
0
0
0
0
0
0
0
0
0
0
0
0
0
0
0
0
0
0
0
0
0
0
0
0
0
0
0
0
0
0
0
0
0
0
0
0
0
0
0
0
0
0
0
0
0
0
0
0
0
0
0
0
0
0
0
0
0
0
0
0
0
0
0
0
0
0
0
0
0
0
0
0
0
0
0
0
0
0
0
0
0
0
0
0
0
0
0
0
0
0
0
0
0
0
0
0
0
0
0
0
0
0
0
0
0
0
0
0
0
0
0
0
0
0
0
0
0
0
0
0
0
0
0
0
0
0
0
0
0
0
0
0
0
0
0
0
0
0
0
0
0
0
0
0
0
0
0
0
0
0
0
0
0
0
0
0
0
0
0
0
0
0
0
0
0
0
0
0
0
0
0
0
0
0
0
0
0
0
0
0
0
0
0
0
0
0
0
0
0
0
0
0
0
0
0
0
0
0
0
0
0
0
0
0
0
0
0
0
0
0
0
0
0
0
0
0
0
0
0
0
0
0
0
0
0
0
0
0
0
0
0
0
0
0
0
0
0
0
0
0
0
0
0
0
0
0
0
0
0
0
0
0
0
0
0
0
0
0
0
0
0
0
0
0
0
0
0
0
0
0
0
0
0
0
0
0
0
0
0
0
0
0
0
0
0
0
0
0
0
0
0
0
0
0
0
0
0
0
0
0
0
0
0
0
0
0
0
0
0
0
0
0
0
0
0
0
0
0
0
0
0
0
0
0
0
0
0
0
0
0
0
0
0
0
0
0
0
0
0
0
0
0
0
0
0
0
0
0
0
0
0
0
0
0
0
0
0
0
0
0
0
0
0
0
0
0
0
0
0
0
0
0
0
0
0
0
0
0
0
0
0
0
0
0
0
0
0
0
0
0
0
0
0
0
0
0
0
0
0
0
0
0
0
0
0
0
0
0
0
0
0
0
0
0
0
0
0
0
0
0
0
0
0
0
0
0
0
0
0
0
0
0
0
0
0
0
0
0
0
0
0
0
0
0
0
0
0
0
0
0
0
0
0
0
0
0
0
0
0
0
0
0
0
0
0
0
0
0
0
0
0
0
0
0
0
0
0
0
0
0
0
0
0
0
0
0
0
0
0
0
0
0
0
0
0
0
0
0
0
0
0
0
0
0
0
0
0
0
0
0
0
0
0
0
0
0
0
0
0
0
0
0
0
0
0
0
0
0
0
0
0
0
0
0
0
0
0
0
0
0
0
0
0
0
0
0
0
0
0
0
0
0
0
0
0
0
0
0
0
0
0
0
0
0
0
0
0
0
0
0
0
0
0
0
0
0
0
0
0
0
0
0
0
0
0
0
0
0
0
0
0
0
0
0
0
0
0
0
0
0
0
0
0
0
0
0
0
0
0
0
0
0
0
0
0
0
0
0
0
0
0
0
0
0
0
0
0
0
0
0
0
0
0
0
0
0
0
0
0
0
0
0
0
0
0
0
0
0
0
0
0
0
0
0
0
0
0
0
0
0
0
0
0
0
0
0
0
0
0
0
0
0
0
0
0
0
0
0
0
0
0
0
0
0
0
0
0
0
0
0
0
0
0
0
0
0
0
0
0
0
0
0
0
0
0
0
0
0
0
0
0
0
0
0
0
0
0
0
0
0
0
0
0
0
0
0
0
0
0
0
0
0
0
0
0
0
0
0
0
0
0
0
0
0
0
0
0
0
0
0
0
0
0
0
0
0
0
0
0
0
0
0
0
0
0
0
0
0
0
0
0
0
0
0
0
0
0
0
0
0
0
0
0
0
0
0
0
0
0
0
0
0
0
0
0
0
0
0
0
0
0
0
0
0
0
0
0
0
0
0
0
0
0
0
0
0
0
0
0
0
0
0
0
0
0
0
0
0
0
0
0
0
0
0
0
0
0
0
0
0
0
0
0
0
0
0
0
0
0
0
0
0
0
0
0
0
0
0
0
0
0
0
0
0
0
0
0
0
0
0
0
0
0
0
0
0
0
0
0
0
0
0
0
0
0
0
0
0
0
0
0
0
0
0
0
0
0
0
0
0
0
0
0
0
0
0
0
0
0
0
0
0
0
0
0
0
0
0
0
0
0
0
0
0
0
0
0
0
0
0
0
0
0
0
0
0
0
0
0
0
0
0
0
0
0
0
0
0
0
0
0
0
0
0
0
0
0
0
0
0
0
0
0
0
0
0
0
0
0
0
0
0
0
0
0
0
0
0
0
0
0
0
0
0
0
0
0
0
0
0
0
0
0
0
0
0
0
0
0
0
0
0
0
0
0
0
0
0
0
0
0
0
0
0
0.0776415
0.052903
0.0436505
0.0357426
0.03048
0.0271088
0.0248019
0.023116
0.0218008
0.0207277
0.0198235
0.0190436
0.0183596
0.0177519
0.0172066
0.0167134
0.0162643
0.0158532
0.0154749
0.0151254
0.0148012
0.0144993
0.0142174
0.0139533
0.0137051
0.0134714
0.0132506
0.0130416
0.0128434
0.0126549
0.0124753
0.0123039
0.0121401
0.0119833
0.0118328
0.0116883
0.0115494
0.0114156
0.0112866
0.0111621
0.0110418
0.0109254
0.0108128
0.0107037
0.0105979
0.0104952
0.0103955
0.0102987
0.0102045
0.0101129
0.0100238
0.00993702
0.00985251
0.00977015
0.00968989
0.00961163
0.00953532
0.00946088
0.00938825
0.00931738
0.00924822
0.00918071
0.00911481
0.00905047
0.00898766
0.00892634
0.00886646
0.008808
0.00875092
0.0086952
0.0086408
0.00858769
0.00853584
0.00848524
0.00843585
0.00838765
0.00834062
0.00829473
0.00824997
0.0082063
0.00816371
0.00812217
0.00808167
0.00804218
0.00800369
0.00796618
0.00792962
0.007894
0.00785929
0.00782549
0.00779256
0.00776049
0.00772927
0.00769887
0.00766929
0.00764049
0.00761246
0.00758519
0.00755865
0.00753284
0.00750773
0.00748332
0.00745957
0.00743648
0.00741403
0.0073922
0.00737099
0.00735037
0.00733033
0.00731085
0.00729193
0.00727354
0.00725567
0.00723832
0.00722146
0.00720508
0.00718917
0.00717371
0.0071587
0.00714412
0.00712995
0.00711619
0.00710284
0.00708986
0.00707727
0.00706504
0.00705317
0.00704166
0.00703049
0.00701966
0.00700916
0.00699897
0.0069891
0.00697952
0.00697024
0.00696122
0.00695247
0.00694398
0.00693574
0.00692774
0.00691999
0.00691248
0.00690523
0.00689824
0.00689152
0.00688508
0.00687892
0.00687304
0.0068674
0.00686197
0.00685668
0.00685147
0.00684623
0.00684087
0.0068353
0.00682949
0.00682345
0.00681727
0.00681118
0.00680555
0.00680092
0.00679799
0.00679761
0.0068007
0.00680822
0.00682094
0.00683934
0.00686335
0.00689211
0.00692368
0.00695481
0.00698068
0.00699476
0.00698879
0.00695293
0.00687612
0.00674668
0.00655331
0.00628641
0.00593975
0.00551259
0.00501206
0.00445579
0.00387437
0.00331339
0.00283437
0.00251399
0.00244103
0.00271077
0.00341707
0.00464332
0.0064526
0.00888014
0.0119291
0.0155685
0.0197338
0.0243335
0.0292576
0.0343793
0.0395575
0.0446522
0.0495358
0.0540787
0.0581364
0.0615774
0.0643332
0.0664101
0.0678469
0.0686676
0.0688731
0.0684634
0.0674597
0.0659098
0.0638797
0.0614443
0.0586805
0.0556643
0.0524684
0.0491613
0.045806
0.0424583
0.0391665
0.0359703
0.0329012
0.0299828
0.0272315
0.0246574
0.022265
0.0200547
0.0180231
0.0161645
0.014471
0.0129336
0.0115423
0.0102868
0.00915685
0.00814204
0.00723253
0.00641883
0.00569202
0.00504376
0.00446629
0.00395249
0.0034958
0.00309026
0.00273045
0.00241145
0.00212883
0.00187861
0.0016572
0.00146138
0.00128829
0.00113535
0.00100029
0.000881043
0.000775812
0.000682977
0.000601105
0.000528923
0.000465303
0.000409246
0.000359865
0.000316376
0.000278086
0.000244381
0.00021472
0.000188622
0.000165664
0.000145474
0.000127721
0.000112113
9.83958e-05
8.63411e-05
7.57498e-05
6.64461e-05
5.8275e-05
5.10999e-05
4.48006e-05
3.92711e-05
3.44183e-05
3.01601e-05
2.64243e-05
2.31474e-05
2.02735e-05
1.77535e-05
1.55442e-05
1.36076e-05
1.19103e-05
1.04231e-05
9.1201e-06
7.97871e-06
6.97905e-06
6.10367e-06
5.33725e-06
4.66632e-06
4.0791e-06
3.56521e-06
3.11558e-06
2.72223e-06
2.37817e-06
2.07727e-06
1.81417e-06
1.58415e-06
1.38308e-06
1.20735e-06
1.05379e-06
9.19615e-07
8.02406e-07
7.00031e-07
6.10625e-07
5.32559e-07
4.64404e-07
4.04911e-07
3.52988e-07
3.07677e-07
2.68143e-07
2.33655e-07
2.03573e-07
1.77338e-07
1.54461e-07
1.34517e-07
1.1713e-07
1.01977e-07
8.87706e-08
7.72638e-08
6.7239e-08
5.85065e-08
5.0901e-08
4.42779e-08
3.85112e-08
3.34908e-08
2.91209e-08
2.53176e-08
2.2008e-08
1.91284e-08
1.66232e-08
1.44442e-08
1.25491e-08
1.09011e-08
9.46829e-09
8.22266e-09
7.13994e-09
6.19895e-09
5.38125e-09
4.67078e-09
4.05357e-09
3.51746e-09
3.05184e-09
2.6475e-09
2.29644e-09
1.99166e-09
1.7271e-09
1.49749e-09
1.29823e-09
1.12534e-09
9.7535e-10
8.45239e-10
7.3239e-10
6.34525e-10
5.49667e-10
4.76096e-10
4.12319e-10
3.57039e-10
3.09132e-10
2.67618e-10
2.3165e-10
2.00491e-10
1.73501e-10
1.50125e-10
1.29882e-10
1.12355e-10
9.71805e-11
8.4045e-11
7.26758e-11
6.28368e-11
5.43229e-11
4.69568e-11
4.05844e-11
3.50725e-11
3.03054e-11
2.6183e-11
2.26185e-11
1.95369e-11
1.68731e-11
1.45706e-11
1.25808e-11
1.08614e-11
9.3758e-12
8.09242e-12
6.98385e-12
6.0264e-12
5.19957e-12
4.48563e-12
3.86924e-12
3.33715e-12
2.87787e-12
2.4815e-12
2.13946e-12
1.84433e-12
1.58972e-12
1.3701e-12
1.18067e-12
1.0173e-12
8.76433e-13
7.54978e-13
6.50274e-13
5.60022e-13
4.82237e-13
4.15204e-13
3.57445e-13
3.07683e-13
2.64816e-13
2.27893e-13
1.96093e-13
1.6871e-13
1.45133e-13
1.24835e-13
1.07363e-13
9.23241e-14
7.93821e-14
6.82458e-14
5.86643e-14
5.04217e-14
4.33318e-14
3.7234e-14
3.19903e-14
2.74816e-14
2.36053e-14
2.02732e-14
1.74092e-14
1.49479e-14
1.2833e-14
1.10159e-14
9.45485e-15
8.11399e-15
6.96238e-15
5.97345e-15
5.12431e-15
4.3953e-15
3.76949e-15
3.23234e-15
2.77134e-15
2.37574e-15
2.03631e-15
1.74509e-15
1.49527e-15
1.281e-15
1.09726e-15
9.39743e-16
8.04773e-16
6.89182e-16
5.90248e-16
5.05615e-16
4.33236e-16
3.71327e-16
3.18333e-16
2.729e-16
2.33863e-16
2.00223e-16
1.71132e-16
1.45874e-16
1.23857e-16
1.04609e-16
8.77912e-17
7.32127e-17
6.0835e-17
5.07495e-17
4.3109e-17
3.80111e-17
3.53517e-17
3.46883e-17
3.51684e-17
3.55752e-17
3.45189e-17
3.07587e-17
2.35879e-17
1.31748e-17
7.32406e-19
-1.15798e-17
-2.10603e-17
-2.51185e-17
-2.20318e-17
-1.15956e-17
4.54331e-18
2.30251e-17
3.94188e-17
4.92557e-17
4.92099e-17
3.81091e-17
1.74734e-17
-8.61869e-18
-3.43613e-17
-5.35797e-17
-6.12866e-17
-5.50272e-17
-3.56407e-17
-7.20441e-18
2.38585e-17
5.03029e-17
6.58359e-17
6.66847e-17
5.25492e-17
2.66914e-17
-4.86452e-18
-3.48117e-17
-5.63384e-17
-6.47503e-17
-5.85367e-17
-3.96279e-17
-1.28112e-17
1.55197e-17
3.89417e-17
5.2506e-17
5.38038e-17
4.3365e-17
2.43349e-17
1.55947e-18
-1.96586e-17
-3.48092e-17
-4.11331e-17
-3.80885e-17
-2.72612e-17
-1.17941e-17
4.4805e-18
1.79739e-17
2.61144e-17
2.78006e-17
2.34685e-17
1.48039e-17
4.2106e-18
-5.81253e-18
-1.32314e-17
-1.6856e-17
-1.64788e-17
-1.27755e-17
-7.02632e-18
-7.46845e-19
4.67513e-18
8.25677e-18
9.56414e-18
8.71313e-18
6.25109e-18
2.96585e-18
-3.23567e-19
-2.94538e-18
-4.48957e-18
-4.84532e-18
-4.16763e-18
-2.79396e-18
-1.13834e-18
4.09864e-19
1.56168e-18
2.16789e-18
2.22101e-18
1.82714e-18
1.16017e-18
4.11588e-19
-2.52466e-19
-7.19492e-19
-9.41586e-19
-9.30617e-19
-7.42212e-19
-4.54453e-19
-1.46907e-19
1.1572e-19
2.93034e-19
3.71204e-19
3.59278e-19
2.81781e-19
1.70005e-19
5.41121e-20
-4.25552e-20
-1.06353e-19
-1.33539e-19
-1.28444e-19
-1.00517e-19
-6.1124e-20
-2.0817e-20
1.25075e-20
3.44302e-20
4.39227e-20
4.26173e-20
3.37568e-20
2.11195e-20
8.14093e-21
-2.65093e-21
-9.86286e-21
-1.31786e-20
-1.31091e-20
-1.06542e-20
-6.97006e-21
-3.10239e-21
1.7881e-22
2.44325e-21
3.57979e-21
3.7211e-21
3.14463e-21
2.1762e-21
1.11397e-21
1.81103e-22
-4.9265e-22
-8.65958e-22
-9.65805e-22
-8.60869e-22
-6.35504e-22
-3.69096e-22
-1.22969e-22
6.51021e-23
1.80206e-22
2.25575e-22
2.16034e-22
1.71459e-22
1.11464e-22
5.19027e-23
3.23667e-24
-2.95569e-23
-4.60365e-23
-4.88364e-23
-4.21401e-23
-3.03932e-23
-1.74098e-23
-5.90439e-24
2.61561e-24
7.69905e-24
9.66216e-24
9.26191e-24
7.40508e-24
4.93327e-24
2.49627e-24
5.05069e-25
-8.55312e-25
-1.57716e-24
-1.76726e-24
-1.5864e-24
-1.20136e-24
-7.5331e-25
-3.42452e-25
-2.55234e-26
1.78037e-25
2.75629e-25
2.90185e-25
2.50362e-25
1.83402e-25
1.1093e-25
4.73319e-26
6.22233e-30
-2.92507e-26
-4.24147e-26
-4.34468e-26
-3.68477e-26
-2.66763e-26
-1.60248e-26
-6.86442e-27
-1.45635e-28
3.96525e-27
5.80681e-27
5.96629e-27
5.08172e-27
3.71363e-27
2.28088e-27
1.04629e-27
1.34575e-28
-4.33354e-28
-7.02208e-28
-7.48381e-28
-6.54337e-28
-4.92347e-28
-3.16546e-28
-1.61287e-28
-4.34981e-29
3.29964e-29
7.27306e-29
8.44024e-29
7.77145e-29
6.13546e-29
4.19831e-29
2.39789e-29
9.67115e-30
-1.86123e-31
-5.87731e-30
-8.24212e-30
-8.30438e-30
-7.02718e-30
-5.18169e-30
-3.30318e-30
-1.70446e-30
-5.20021e-31
2.39512e-31
6.36021e-31
7.62777e-31
7.15908e-31
5.77705e-31
4.0939e-31
2.50435e-31
1.21686e-31
3.014e-32
-2.61291e-32
-5.37661e-32
-6.10101e-32
-5.56868e-32
-4.41506e-32
-3.09277e-32
-1.88087e-32
-9.1769e-33
-2.4146e-33
1.71214e-33
3.74233e-33
4.29958e-33
3.95671e-33
3.16908e-33
2.25637e-33
1.4138e-33
7.37912e-34
2.56101e-34
-4.6335e-35
-2.04866e-34
-2.60834e-34
-2.52415e-34
-2.10194e-34
-1.55938e-34
-1.03288e-34
-5.93977e-35
-2.6817e-35
-5.21738e-36
7.23182e-36
1.2893e-35
1.40567e-35
1.26278e-35
1.00167e-35
7.15629e-36
4.58301e-36
2.54122e-36
1.08261e-36
1.48452e-37
-3.69979e-37
-5.91778e-37
-6.23826e-37
-5.50659e-37
-4.32455e-37
-3.07615e-37
-1.97377e-37
-1.10801e-37
-4.92043e-38
-9.64231e-39
1.26339e-38
2.2624e-38
2.47271e-38
2.23866e-38
1.80447e-38
1.3266e-38
8.93089e-39
5.43566e-39
2.86763e-39
1.14086e-39
9.17725e-41
-4.60135e-40
-6.78347e-40
-6.94289e-40
-6.04163e-40
-4.72368e-40
-3.37823e-40
-2.20851e-40
-1.29373e-40
-6.38393e-41
-2.08253e-41
4.59005e-42
1.73945e-41
2.19061e-41
2.14938e-41
1.85694e-41
1.47191e-41
1.0887e-41
7.55774e-42
4.91479e-42
2.9621e-42
1.61125e-42
7.38426e-43
2.18262e-43
-5.87357e-44
-1.79487e-43
-2.07993e-43
-1.88242e-43
-1.48353e-43
-1.04797e-43
-6.60589e-44
-3.55496e-44
-1.37261e-44
4.56156e-46
8.62508e-45
1.24615e-44
1.34327e-44
1.26921e-44
1.10743e-44
9.13682e-45
7.2203e-45
5.5078e-45
4.07649e-45
2.938e-45
2.06769e-45
1.42441e-45
9.62838e-46
6.40438e-46
4.20752e-46
2.74436e-46
1.78982e-46
1.17805e-46
7.91105e-47
5.47847e-47
3.94174e-47
2.95146e-47
2.28907e-47
1.82233e-47
1.4739e-47
1.20003e-47
9.7668e-48
7.90794e-48
6.35057e-48
5.04954e-48
3.97197e-48
3.08991e-48
2.37731e-48
1.80938e-48
1.36279e-48
1.01614e-48
7.50401e-49
5.49065e-49
3.9822e-49
2.8639e-49
2.04309e-49
1.4463e-49
1.01626e-49
7.09024e-50
4.91291e-50
3.38182e-50
2.31311e-50
1.57243e-50
1.06258e-50
7.13922e-51
4.76995e-51
3.16972e-51
2.09527e-51
1.37794e-51
9.01681e-52
5.87165e-52
3.80543e-52
2.45489e-52
1.57648e-52
1.00791e-52
6.41602e-53
4.06689e-53
2.56713e-53
1.61382e-53
1.01046e-53
6.30189e-54
3.91506e-54
2.42299e-54
1.49396e-54
9.17745e-55
5.61732e-55
3.42597e-55
2.08213e-55
1.26102e-55
7.61115e-56
4.57837e-56
2.74488e-56
1.64023e-56
9.76962e-57
5.80036e-57
3.43285e-57
2.02532e-57
1.19121e-57
6.98475e-58
4.08317e-58
2.37981e-58
1.38293e-58
8.01275e-59
4.62915e-59
2.66668e-59
1.53181e-59
8.77426e-60
5.0119e-60
2.8549e-60
1.62176e-60
9.18759e-61
5.19091e-61
2.92499e-61
1.64381e-61
9.21376e-62
5.15096e-62
2.8722e-62
1.59745e-62
8.86196e-63
4.90382e-63
2.70675e-63
1.49032e-63
8.18529e-64
4.48459e-64
2.45104e-64
1.33637e-64
7.26868e-65
3.94409e-65
2.13504e-65
1.15303e-65
6.21234e-66
3.33932e-66
1.79084e-66
9.58195e-67
5.11515e-67
2.72442e-67
1.4478e-67
7.67659e-68
4.06122e-68
2.14378e-68
1.12913e-68
5.93408e-69
3.11181e-69
1.62829e-69
8.50175e-70
4.42948e-70
2.30286e-70
1.1947e-70
6.18488e-71
3.19513e-71
1.64716e-71
8.47377e-72
4.35027e-72
2.22874e-72
1.13949e-72
5.81398e-73
2.96041e-73
1.50435e-73
7.62909e-74
3.86121e-74
1.95032e-74
9.83159e-75
4.94632e-75
2.48361e-75
1.24461e-75
6.22489e-76
3.10732e-76
1.5481e-76
7.69789e-77
3.82041e-77
1.89242e-77
9.35613e-78
4.6169e-78
2.27396e-78
1.11789e-78
5.48527e-79
2.68649e-79
1.3133e-79
6.40824e-80
3.12111e-80
1.51733e-80
7.36303e-81
3.56647e-81
1.72437e-81
8.3221e-82
4.00914e-82
1.92792e-82
9.25434e-83
4.43432e-83
2.12097e-83
1.01268e-83
4.82657e-84
2.29637e-84
1.09064e-84
5.17082e-85
2.44726e-85
1.15623e-85
5.45329e-86
2.56756e-86
1.2068e-86
5.66246e-87
2.65235e-87
1.24027e-87
5.7898e-88
2.6982e-88
1.25531e-88
5.8304e-89
2.70343e-89
1.25143e-89
5.78324e-90
2.66818e-90
1.22896e-90
5.65123e-91
2.59437e-91
1.18907e-91
5.44091e-92
2.48557e-92
1.13363e-92
5.16195e-93
2.34667e-93
1.06509e-93
4.82642e-94
2.18356e-94
9.86301e-95
4.44795e-95
2.00272e-95
9.00304e-96
4.04084e-96
1.81079e-96
8.10176e-97
3.61917e-97
1.61421e-97
7.18837e-98
3.19614e-98
1.41888e-98
6.28914e-99
2.78334e-99
1.22991e-99
5.42638e-100
2.39046e-100
1.05145e-100
4.61779e-101
2.02497e-101
8.8663e-102
3.87623e-102
1.69208e-102
7.37524e-103
3.20981e-103
1.39486e-103
6.0525e-104
2.62234e-104
1.13448e-104
4.90073e-105
2.11388e-105
9.10458e-106
3.9156e-106
1.6815e-106
7.21041e-107
3.08735e-107
1.32002e-107
5.63558e-108
2.40252e-108
1.02274e-108
4.34747e-109
1.84535e-109
7.82164e-110
3.31048e-110
1.39915e-110
5.9049e-111
2.48853e-111
1.04726e-111
4.40098e-112
1.84683e-112
7.73913e-113
3.2385e-113
1.35327e-113
5.64693e-114
2.35306e-114
9.79141e-115
4.06866e-115
1.68831e-115
6.996e-116
2.89497e-116
1.19629e-116
4.93663e-117
2.03435e-117
8.37186e-118
3.44051e-118
1.41198e-118
5.78682e-119
2.36842e-119
9.68025e-120
3.95116e-120
1.61054e-120
6.55592e-121
2.66506e-121
1.08192e-121
4.38632e-122
1.77591e-122
7.18061e-123
2.89948e-123
1.16923e-123
4.70868e-124
1.89375e-124
7.60623e-125
3.05099e-125
1.22219e-125
4.88949e-126
1.95351e-126
7.79469e-127
3.10607e-127
1.23611e-127
4.91283e-128
1.95003e-128
7.73013e-129
3.06032e-129
1.21e-129
4.77793e-130
1.88423e-130
7.42109e-131
2.91906e-131
1.14673e-131
4.49903e-132
1.76288e-132
6.89877e-133
2.69629e-133
1.05247e-133
4.10297e-134
1.59749e-134
6.21192e-135
2.41249e-135
9.35744e-136
3.62495e-136
1.40249e-136
5.41943e-137
2.09152e-137
8.06173e-138
3.1035e-138
1.19326e-138
4.58222e-139
1.75743e-139
6.73196e-140
2.57553e-140
9.84139e-141
3.75587e-141
1.43162e-141
5.45021e-142
2.07236e-142
7.87016e-143
2.98519e-143
1.13091e-143
4.27915e-144
1.61717e-144
6.10419e-145
2.3013e-145
8.66545e-146
3.259e-146
1.2242e-146
4.59303e-147
1.72117e-147
6.44205e-148
2.40827e-148
8.99218e-149
3.35356e-149
1.24919e-149
4.64766e-150
1.72712e-150
6.41055e-151
2.37658e-151
8.80028e-152
3.25481e-152
1.20238e-152
4.43658e-153
1.6351e-153
6.01904e-154
2.2131e-154
8.1277e-155
2.98144e-155
1.09239e-155
3.99781e-156
1.46137e-156
5.33575e-157
1.94592e-157
7.08848e-158
2.57916e-158
9.37349e-159
3.4027e-159
1.2338e-159
4.46857e-160
1.61656e-160
5.84143e-161
2.10838e-161
7.60117e-162
2.73727e-162
9.84599e-163
3.53759e-163
1.26958e-163
4.55117e-164
1.62964e-164
5.82868e-165
2.08237e-165
7.43114e-166
2.64889e-166
9.43156e-167
3.35441e-167
1.19168e-167
4.22882e-168
1.49897e-168
5.30739e-169
1.87709e-169
6.63139e-170
2.34014e-170
8.24892e-171
2.9045e-171
1.02156e-171
3.58902e-172
1.25953e-172
4.41533e-173
1.54611e-173
5.40802e-174
1.88956e-174
6.59486e-175
2.29919e-175
8.00701e-176
2.78542e-176
9.67919e-177
3.3598e-177
1.16497e-177
4.03502e-178
1.39607e-178
4.82498e-179
1.66577e-179
5.74467e-180
1.97901e-180
6.81023e-181
2.34104e-181
8.03877e-182
2.75743e-182
9.4483e-183
3.23399e-183
1.10576e-183
3.77674e-184
1.28858e-184
4.39181e-185
1.49525e-185
5.08538e-186
1.72772e-186
5.86357e-187
1.98789e-187
6.7323e-188
2.2776e-188
7.69721e-189
2.59856e-189
8.76346e-190
2.95232e-190
9.93563e-191
3.34021e-191
1.12175e-191
3.76329e-192
1.26121e-192
4.22233e-193
1.4121e-193
4.71769e-194
1.5745e-194
5.24934e-195
1.74831e-195
5.81678e-196
1.9333e-196
6.41902e-197
2.12907e-197
7.05449e-198
2.33504e-198
7.7211e-199
2.55046e-199
8.41615e-200
2.77437e-200
9.13634e-201
3.00564e-201
9.87781e-202
3.24296e-202
1.06361e-202
3.48484e-203
1.14062e-203
3.72961e-204
1.21827e-204
3.97547e-205
1.29597e-205
4.22048e-206
1.37307e-206
4.4626e-207
1.44893e-207
4.69972e-208
1.52286e-208
4.92965e-209
1.59418e-209
5.15022e-210
1.66219e-210
5.35927e-211
1.72622e-211
5.55467e-212
1.78562e-212
5.7344e-213
1.83975e-213
5.89658e-214
1.88805e-214
6.03945e-215
1.92999e-215
6.16147e-216
1.96511e-216
6.2613e-217
1.99304e-217
6.33785e-218
2.01346e-218
6.3903e-219
2.02617e-219
6.41809e-220
2.03102e-220
6.42094e-221
2.02798e-221
6.3989e-222
2.0171e-222
6.35226e-223
1.99853e-223
6.28162e-224
1.97249e-224
6.18784e-225
1.9393e-225
6.07205e-226
1.89936e-226
5.93558e-227
1.85311e-227
5.77997e-228
1.80109e-228
5.60697e-229
1.74384e-229
5.41842e-230
1.682e-230
5.21632e-231
1.61619e-231
5.00272e-232
1.54707e-232
4.77971e-233
1.47531e-233
4.5494e-234
1.40157e-234
4.31387e-235
1.32651e-235
4.07516e-236
1.25075e-236
3.83522e-237
1.1749e-237
3.59589e-238
1.09953e-238
3.35891e-239
1.02515e-239
3.12585e-240
9.5224e-241
2.89815e-241
8.81233e-242
2.67706e-242
8.12496e-243
2.46367e-243
7.4635e-244
2.25892e-244
6.83058e-245
2.06354e-245
6.2283e-246
1.87813e-246
5.65824e-247
1.70309e-247
5.1215e-248
1.53871e-248
4.6187e-249
1.38511e-249
4.15005e-250
1.24229e-250
3.71535e-251
1.11014e-251
3.31408e-252
9.88445e-253
2.94542e-253
8.76894e-254
2.60828e-254
7.75116e-255
2.30137e-255
6.82676e-256
2.02325e-256
5.99092e-257
1.77233e-257
5.23849e-258
1.54695e-258
4.56412e-259
1.34539e-259
3.96231e-260
1.1659e-260
3.42755e-261
1.00674e-261
2.95438e-262
8.66215e-263
2.53745e-263
7.42649e-264
2.17162e-264
6.34449e-265
1.85193e-265
5.40091e-266
1.57371e-266
4.58139e-267
1.33256e-267
3.87251e-268
1.12438e-268
3.26177e-269
9.45387e-270
2.73769e-270
7.92093e-271
2.28975e-271
6.61328e-272
1.90838e-272
5.50218e-273