# vtk DataFile Version 2.0
FlowField
ASCII
DATASET STRUCTURED_GRID
DIMENSIONS 1602 1 52
POINTS 83304 float
0 0 0
0.1 0 0
0.2 0 0
0.3 0 0
0.4 0 0
0.5 0 0
0.6 0 0
0.7 0 0
0.8 0 0
0.9 0 0
1 0 0
1.1 0 0
1.2 0 0
1.3 0 0
1.4 0 0
1.5 0 0
1.6 0 0
1.7 0 0
1.8 0 0
1.9 0 0
2 0 0
2.1 0 0
2.2 0 0
2.3 0 0
2.4 0 0
2.5 0 0
2.6 0 0
2.7 0 0
2.8 0 0
2.9 0 0
3 0 0
3.1 0 0
3.2 0 0
3.3 0 0
3.4 0 0
3.5 0 0
3.6 0 0
3.7 0 0
3.8 0 0
3.9 0 0
4 0 0
4.1 0 0
4.2 0 0
4.3 0 0
4.4 0 0
4.5 0 0
4.6 0 0
4.7 0 0
4.8 0 0
4.9 0 0
5 0 0
5.1 0 0
5.2 0 0
5.3 0 0
5.4 0 0
5.5 0 0
5.6 0 0
5.7 0 0
5.8 0 0
5.9 0 0
6 0 0
6.1 0 0
6.2 0 0
6.3 0 0
6.4 0 0
6.5 0 0
6.6 0 0
6.7 0 0
6.8 0 0
6.9 0 0
7 0 0
7.1 0 0
7.2 0 0
7.3 0 0
7.4 0 0
7.5 0 0
7.6 0 0
7.7 0 0
7.8 0 0
7.9 0 0
8 0 0
8.1 0 0
8.2 0 0
8.3 0 0
8.4 0 0
8.5 0 0
8.6 0 0
8.7 0 0
8.8 0 0
8.9 0 0
9 0 0
9.1 0 0
9.2 0 0
9.3 0 0
9.4 0 0
9.5 0 0
9.6 0 0
9.7 0 0
9.8 0 0
9.9 0 0
10 0 0
10.1 0 0
10.2 0 0
10.3 0 0
10.4 0 0
10.5 0 0
10.6 0 0
10.7 0 0
10.8 0 0
10.9 0 0
11 0 0
11.1 0 0
11.2 0 0
11.3 0 0
11.4 0 0
11.5 0 0
11.6 0 0
11.7 0 0
11.8 0 0
11.9 0 0
12 0 0
12.1 0 0
12.2 0 0
12.3 0 0
12.4 0 0
12.5 0 0
12.6 0 0
12.7 0 0
12.8 0 0
12.9 0 0
13 0 0
13.1 0 0
13.2 0 0
13.3 0 0
13.4 0 0
13.5 0 0
13.6 0 0
13.7 0 0
13.8 0 0
13.9 0 0
14 0 0
14.1 0 0
14.2 0 0
14.3 0 0
14.4 0 0
14.5 0 0
14.6 0 0
14.7 0 0
14.8 0 0
14.9 0 0
15 0 0
15.1 0 0
15.2 0 0
15.3 0 0
15.4 0 0
15.5 0 0
15.6 0 0
15.7 0 0
15.8 0 0
15.9 0 0
16 0 0
16.1 0 0
16.2 0 0
16.3 0 0
16.4 0 0
16.5 0 0
16.6 0 0
16.7 0 0
16.8 0 0
16.9 0 0
17 0 0
17.1 0 0
17.2 0 0
17.3 0 0
17.4 0 0
17.5 0 0
17.6 0 0
17.7 0 0
17.8 0 0
17.9 0 0
18 0 0
18.1 0 0
18.2 0 0
18.3 0 0
18.4 0 0
18.5 0 0
18.6 0 0
18.7 0 0
18.8 0 0
18.9 0 0
19 0 0
19.1 0 0
19.2 0 0
19.3 0 0
19.4 0 0
19.5 0 0
19.6 0 0
19.7 0 0
19.8 0 0
19.9 0 0
20 0 0
20.1 0 0
20.2 0 0
20.3 0 0
20.4 0 0
20.5 0 0
20.6 0 0
20.7 0 0
20.8 0 0
20.9 0 0
21 0 0
21.1 0 0
21.2 0 0
21.3 0 0
21.4 0 0
21.5 0 0
21.6 0 0
21.7 0 0
21.8 0 0
21.9 0 0
22 0 0
22.1 0 0
22.2 0 0
22.3 0 0
22.4 0 0
22.5 0 0
22.6 0 0
22.7 0 0
22.8 0 0
22.9 0 0
23 0 0
23.1 0 0
23.2 0 0
23.3 0 0
23.4 0 0
23.5 0 0
23.6 0 0
23.7 0 0
23.8 0 0
23.9 0 0
24 0 0
24.1 0 0
24.2 0 0
24.3 0 0
24.4 0 0
24.5 0 0
24.6 0 0
24.7 0 0
24.8 0 0
24.9 0 0
25 0 0
25.1 0 0
25.2 0 0
25.3 0 0
25.4 0 0
25.5 0 0
25.6 0 0
25.7 0 0
25.8 0 0
25.9 0 0
26 0 0
26.1 0 0
26.2 0 0
26.3 0 0
26.4 0 0
26.5 0 0
26.6 0 0
26.7 0 0
26.8 0 0
26.9 0 0
27 0 0
27.1 0 0
27.2 0 0
27.3 0 0
27.4 0 0
27.5 0 0
27.6 0 0
27.7 0 0
27.8 0 0
27.9 0 0
28 0 0
28.1 0 0
28.2 0 0
28.3 0 0
28.4 0 0
28.5 0 0
28.6 0 0
28.7 0 0
28.8 0 0
28.9 0 0
29 0 0
29.1 0 0
29.2 0 0
29.3 0 0
29.4 0 0
29.5 0 0
29.6 0 0
29.7 0 0
29.8 0 0
29.9 0 0
30 0 0
30.1 0 0
30.2 0 0
30.3 0 0
30.4 0 0
30.5 0 0
30.6 0 0
30.7 0 0
30.8 0 0
30.9 0 0
31 0 0
31.1 0 0
31.2 0 0
31.3 0 0
31.4 0 0
31.5 0 0
31.6 0 0
31.7 0 0
31.8 0 0
31.9 0 0
32 0 0
32.1 0 0
32.2 0 0
32.3 0 0
32.4 0 0
32.5 0 0
32.6 0 0
32.7 0 0
32.8 0 0
32.9 0 0
33 0 0
33.1 0 0
33.2 0 0
33.3 0 0
33.4 0 0
33.5 0 0
33.6 0 0
33.7 0 0
33.8 0 0
33.9 0 0
34 0 0
34.1 0 0
34.2 0 0
34.3 0 0
34.4 0 0
34.5 0 0
34.6 0 0
34.7 0 0
34.8 0 0
34.9 0 0
35 0 0
35.1 0 0
35.2 0 0
35.3 0 0
35.4 0 0
35.5 0 0
35.6 0 0
35.7 0 0
35.8 0 0
35.9 0 0
36 0 0
36.1 0 0
36.2 0 0
36.3 0 0
36.4 0 0
36.5 0 0
36.6 0 0
36.7 0 0
36.8 0 0
36.9 0 0
37 0 0
37.1 0 0
37.2 0 0
37.3 0 0
37.4 0 0
37.5 0 0
37.6 0 0
37.7 0 0
37.8 0 0
37.9 0 0
38 0 0
38.1 0 0
38.2 0 0
38.3 0 0
38.4 0 0
38.5 0 0
38.6 0 0
38.7 0 0
38.8 0 0
38.9 0 0
39 0 0
39.1 0 0
39.2 0 0
39.3 0 0
39.4 0 0
39.5 0 0
39.6 0 0
39.7 0 0
39.8 0 0
39.9 0 0
40 0 0
40.1 0 0
40.2 0 0
40.3 0 0
40.4 0 0
40.5 0 0
40.6 0 0
40.7 0 0
40.8 0 0
40.9 0 0
41 0 0
41.1 0 0
41.2 0 0
41.3 0 0
41.4 0 0
41.5 0 0
41.6 0 0
41.7 0 0
41.8 0 0
41.9 0 0
42 0 0
42.1 0 0
42.2 0 0
42.3 0 0
42.4 0 0
42.5 0 0
42.6 0 0
42.7 0 0
42.8 0 0
42.9 0 0
43 0 0
43.1 0 0
43.2 0 0
43.3 0 0
43.4 0 0
43.5 0 0
43.6 0 0
43.7 0 0
43.8 0 0
43.9 0 0
44 0 0
44.1 0 0
44.2 0 0
44.3 0 0
44.4 0 0
44.5 0 0
44.6 0 0
44.7 0 0
44.8 0 0
44.9 0 0
45 0 0
45.1 0 0
45.2 0 0
45.3 0 0
45.4 0 0
45.5 0 0
45.6 0 0
45.7 0 0
45.8 0 0
45.9 0 0
46 0 0
46.1 0 0
46.2 0 0
46.3 0 0
46.4 0 0
46.5 0 0
46.6 0 0
46.7 0 0
46.8 0 0
46.9 0 0
47 0 0
47.1 0 0
47.2 0 0
47.3 0 0
47.4 0 0
47.5 0 0
47.6 0 0
47.7 0 0
47.8 0 0
47.9 0 0
48 0 0
48.1 0 0
48.2 0 0
48.3 0 0
48.4 0 0
48.5 0 0
48.6 0 0
48.7 0 0
48.8 0 0
48.9 0 0
49 0 0
49.1 0 0
49.2 0 0
49.3 0 0
49.4 0 0
49.5 0 0
49.6 0 0
49.7 0 0
49.8 0 0
49.9 0 0
50 0 0
50.1 0 0
50.2 0 0
50.3 0 0
50.4 0 0
50.5 0 0
50.6 0 0
50.7 0 0
50.8 0 0
50.9 0 0
51 0 0
51.1 0 0
51.2 0 0
51.3 0 0
51.4 0 0
51.5 0 0
51.6 0 0
51.7 0 0
51.8 0 0
51.9 0 0
52 0 0
52.1 0 0
52.2 0 0
52.3 0 0
52.4 0 0
52.5 0 0
52.6 0 0
52.7 0 0
52.8 0 0
52.9 0 0
53 0 0
53.1 0 0
53.2 0 0
53.3 0 0
53.4 0 0
53.5 0 0
53.6 0 0
53.7 0 0
53.8 0 0
53.9 0 0
54 0 0
54.1 0 0
54.2 0 0
54.3 0 0
54.4 0 0
54.5 0 0
54.6 0 0
54.7 0 0
54.8 0 0
54.9 0 0
55 0 0
55.1 0 0
55.2 0 0
55.3 0 0
55.4 0 0
55.5 0 0
55.6 0 0
55.7 0 0
55.8 0 0
55.9 0 0
56 0 0
56.1 0 0
56.2 0 0
56.3 0 0
56.4 0 0
56.5 0 0
56.6 0 0
56.7 0 0
56.8 0 0
56.9 0 0
57 0 0
57.1 0 0
57.2 0 0
57.3 0 0
57.4 0 0
57.5 0 0
57.6 0 0
57.7 0 0
57.8 0 0
57.9 0 0
58 0 0
58.1 0 0
58.2 0 0
58.3 0 0
58.4 0 0
58.5 0 0
58.6 0 0
58.7 0 0
58.8 0 0
58.9 0 0
59 0 0
59.1 0 0
59.2 0 0
59.3 0 0
59.4 0 0
59.5 0 0
59.6 0 0
59.7 0 0
59.8 0 0
59.9 0 0
60 0 0
60.1 0 0
60.2 0 0
60.3 0 0
60.4 0 0
60.5 0 0
60.6 0 0
60.7 0 0
60.8 0 0
60.9 0 0
61 0 0
61.1 0 0
61.2 0 0
61.3 0 0
61.4 0 0
61.5 0 0
61.6 0 0
61.7 0 0
61.8 0 0
61.9 0 0
62 0 0
62.1 0 0
62.2 0 0
62.3 0 0
62.4 0 0
62.5 0 0
62.6 0 0
62.7 0 0
62.8 0 0
62.9 0 0
63 0 0
63.1 0 0
63.2 0 0
63.3 0 0
63.4 0 0
63.5 0 0
63.6 0 0
63.7 0 0
63.8 0 0
63.9 0 0
64 0 0
64.1 0 0
64.2 0 0
64.3 0 0
64.4 0 0
64.5 0 0
64.6 0 0
64.7 0 0
64.8 0 0
64.9 0 0
65 0 0
65.1 0 0
65.2 0 0
65.3 0 0
65.4 0 0
65.5 0 0
65.6 0 0
65.7 0 0
65.8 0 0
65.9 0 0
66 0 0
66.1 0 0
66.2 0 0
66.3 0 0
66.4 0 0
66.5 0 0
66.6 0 0
66.7 0 0
66.8 0 0
66.9 0 0
67 0 0
67.1 0 0
67.2 0 0
67.3 0 0
67.4 0 0
67.5 0 0
67.6 0 0
67.7 0 0
67.8 0 0
67.9 0 0
68 0 0
68.1 0 0
68.2 0 0
68.3 0 0
68.4 0 0
68.5 0 0
68.6 0 0
68.7 0 0
68.8 0 0
68.9 0 0
69 0 0
69.1 0 0
69.2 0 0
69.3 0 0
69.4 0 0
69.5 0 0
69.6 0 0
69.7 0 0
69.8 0 0
69.9 0 0
70 0 0
70.1 0 0
70.2 0 0
70.3 0 0
70.4 0 0
70.5 0 0
70.6 0 0
70.7 0 0
70.8 0 0
70.9 0 0
71 0 0
71.1 0 0
71.2 0 0
71.3 0 0
71.4 0 0
71.5 0 0
71.6 0 0
71.7 0 0
71.8 0 0
71.9 0 0
72 0 0
72.1 0 0
72.2 0 0
72.3 0 0
72.4 0 0
72.5 0 0
72.6 0 0
72.7 0 0
72.8 0 0
72.9 0 0
73 0 0
73.1 0 0
73.2 0 0
73.3 0 0
73.4 0 0
73.5 0 0
73.6 0 0
73.7 0 0
73.8 0 0
73.9 0 0
74 0 0
74.1 0 0
74.2 0 0
74.3 0 0
74.4 0 0
74.5 0 0
74.6 0 0
74.7 0 0
74.8 0 0
74.9 0 0
75 0 0
75.1 0 0
75.2 0 0
75.3 0 0
75.4 0 0
75.5 0 0
75.6 0 0
75.7 0 0
75.8 0 0
75.9 0 0
76 0 0
76.1 0 0
76.2 0 0
76.3 0 0
76.4 0 0
76.5 0 0
76.6 0 0
76.7 0 0
76.8 0 0
76.9 0 0
77 0 0
77.1 0 0
77.2 0 0
77.3 0 0
77.4 0 0
77.5 0 0
77.6 0 0
77.7 0 0
77.8 0 0
77.9 0 0
78 0 0
78.1 0 0
78.2 0 0
78.3 0 0
78.4 0 0
78.5 0 0
78.6 0 0
78.7 0 0
78.8 0 0
78.9 0 0
79 0 0
79.1 0 0
79.2 0 0
79.3 0 0
79.4 0 0
79.5 0 0
79.6 0 0
79.7 0 0
79.8 0 0
79.9 0 0
80 0 0
80.1 0 0
80.2 0 0
80.3 0 0
80.4 0 0
80.5 0 0
80.6 0 0
80.7 0 0
80.8 0 0
80.9 0 0
81 0 0
81.1 0 0
81.2 0 0
81.3 0 0
81.4 0 0
81.5 0 0
81.6 0 0
81.7 0 0
81.8 0 0
81.9 0 0
82 0 0
82.1 0 0
82.2 0 0
82.3 0 0
82.4 0 0
82.5 0 0
82.6 0 0
82.7 0 0
82.8 0 0
82.9 0 0
83 0 0
83.1 0 0
83.2 0 0
83.3 0 0
83.4 0 0
83.5 0 0
83.6 0 0
83.7 0 0
83.8 0 0
83.9 0 0
84 0 0
84.1 0 0
84.2 0 0
84.3 0 0
84.4 0 0
84.5 0 0
84.6 0 0
84.7 0 0
84.8 0 0
84.9 0 0
85 0 0
85.1 0 0
85.2 0 0
85.3 0 0
85.4 0 0
85.5 0 0
85.6 0 0
85.7 0 0
85.8 0 0
85.9 0 0
86 0 0
86.1 0 0
86.2 0 0
86.3 0 0
86.4 0 0
86.5 0 0
86.6 0 0
86.7 0 0
86.8 0 0
86.9 0 0
87 0 0
87.1 0 0
87.2 0 0
87.3 0 0
87.4 0 0
87.5 0 0
87.6 0 0
87.7 0 0
87.8 0 0
87.9 0 0
88 0 0
88.1 0 0
88.2 0 0
88.3 0 0
88.4 0 0
88.5 0 0
88.6 0 0
88.7 0 0
88.8 0 0
88.9 0 0
89 0 0
89.1 0 0
89.2 0 0
89.3 0 0
89.4 0 0
89.5 0 0
89.6 0 0
89.7 0 0
89.8 0 0
89.9 0 0
90 0 0
90.1 0 0
90.2 0 0
90.3 0 0
90.4 0 0
90.5 0 0
90.6 0 0
90.7 0 0
90.8 0 0
90.9 0 0
91 0 0
91.1 0 0
91.2 0 0
91.3 0 0
91.4 0 0
91.5 0 0
91.6 0 0
91.7 0 0
91.8 0 0
91.9 0 0
92 0 0
92.1 0 0
92.2 0 0
92.3 0 0
92.4 0 0
92.5 0 0
92.6 0 0
92.7 0 0
92.8 0 0
92.9 0 0
93 0 0
93.1 0 0
93.2 0 0
93.3 0 0
93.4 0 0
93.5 0 0
93.6 0 0
93.7 0 0
93.8 0 0
93.9 0 0
94 0 0
94.1 0 0
94.2 0 0
94.3 0 0
94.4 0 0
94.5 0 0
94.6 0 0
94.7 0 0
94.8 0 0
94.9 0 0
95 0 0
95.1 0 0
95.2 0 0
95.3 0 0
95.4 0 0
95.5 0 0
95.6 0 0
95.7 0 0
95.8 0 0
95.9 0 0
96 0 0
96.1 0 0
96.2 0 0
96.3 0 0
96.4 0 0
96.5 0 0
96.6 0 0
96.7 0 0
96.8 0 0
96.9 0 0
97 0 0
97.1 0 0
97.2 0 0
97.3 0 0
97.4 0 0
97.5 0 0
97.6 0 0
97.7 0 0
97.8 0 0
97.9 0 0
98 0 0
98.1 0 0
98.2 0 0
98.3 0 0
98.4 0 0
98.5 0 0
98.6 0 0
98.7 0 0
98.8 0 0
98.9 0 0
99 0 0
99.1 0 0
99.2 0 0
99.3 0 0
99.4 0 0
99.5 0 0
99.6 0 0
99.7 0 0
99.8 0 0
99.9 0 0
100 0 0
100.1 0 0
100.2 0 0
100.3 0 0
100.4 0 0
100.5 0 0
100.6 0 0
100.7 0 0
100.8 0 0
100.9 0 0
101 0 0
101.1 0 0
101.2 0 0
101.3 0 0
101.4 0 0
101.5 0 0
101.6 0 0
101.7 0 0
101.8 0 0
101.9 0 0
102 0 0
102.1 0 0
102.2 0 0
102.3 0 0
102.4 0 0
102.5 0 0
102.6 0 0
102.7 0 0
102.8 0 0
102.9 0 0
103 0 0
103.1 0 0
103.2 0 0
103.3 0 0
103.4 0 0
103.5 0 0
103.6 0 0
103.7 0 0
103.8 0 0
103.9 0 0
104 0 0
104.1 0 0
104.2 0 0
104.3 0 0
104.4 0 0
104.5 0 0
104.6 0 0
104.7 0 0
104.8 0 0
104.9 0 0
105 0 0
105.1 0 0
105.2 0 0
105.3 0 0
105.4 0 0
105.5 0 0
105.6 0 0
105.7 0 0
105.8 0 0
105.9 0 0
106 0 0
106.1 0 0
106.2 0 0
106.3 0 0
106.4 0 0
106.5 0 0
106.6 0 0
106.7 0 0
106.8 0 0
106.9 0 0
107 0 0
107.1 0 0
107.2 0 0
107.3 0 0
107.4 0 0
107.5 0 0
107.6 0 0
107.7 0 0
107.8 0 0
107.9 0 0
108 0 0
108.1 0 0
108.2 0 0
108.3 0 0
108.4 0 0
108.5 0 0
108.6 0 0
108.7 0 0
108.8 0 0
108.9 0 0
109 0 0
109.1 0 0
109.2 0 0
109.3 0 0
109.4 0 0
109.5 0 0
109.6 0 0
109.7 0 0
109.8 0 0
109.9 0 0
110 0 0
110.1 0 0
110.2 0 0
110.3 0 0
110.4 0 0
110.5 0 0
110.6 0 0
110.7 0 0
110.8 0 0
110.9 0 0
111 0 0
111.1 0 0
111.2 0 0
111.3 0 0
111.4 0 0
111.5 0 0
111.6 0 0
111.7 0 0
111.8 0 0
111.9 0 0
112 0 0
[...]
POINT_DATA 83304

SCALARS pressure float 1
LOOKUP_TABLE default
0
0
0
0
0
0
0
0
0
0
0
0
0
0
0
0
0
0
0
0
0
0
0
0
0
0
0
0
0
0
0
0
0
0
0
0
0
0
0
0
0
0
0
0
0
0
0
0
0
0
0
0
0
0
0
0
0
0
0
0
0
0
0
0
0
0
0
0
0
0
0
0
0
0
0
0
0
0
0
0
0
0
0
0
0
0
0
0
0
0
0
0
0
0
0
0
0
0
0
0
0
0
0
0
0
0
0
0
0
0
0
0
0
0
0
0
0
0
0
0
0
0
0
0
0
0
0
0
0
0
0
0
0
0
0
0
0
0
0
0
0
0
0
0
0
0
0
0
0
0
0
0
0
0
0
0
0
0
0
0
0
0
0
0
0
0
0
0
0
0
0
0
0
0
0
0
0
0
0
0
0
0
0
0
0
0
0
0
0
0
0
0
0
0
0
0
0
0
0
0
0
0
0
0
0
0
0
0
0
0
0
0
0
0
0
0
0
0
0
0
0
0
0
0
0
0
0
0
0
0
0
0
0
0
0
0
0
0
0
0
0
0
0
0
0
0
0
0
0
0
0
0
0
0
0
0
0
0
0
0
0
0
0
0
0
0
0
0
0
0
0
0
0
0
0
0
0
0
0
0
0
0
0
0
0
0
0
0
0
0
0
0
0
0
0
0
0
0
0
0
0
0
0
0
0
0
0
0
0
0
0
0
0
0
0
0
0
0
0
0
0
0
0
0
0
0
0
0
0
0
0
0
0
0
0
0
0
0
0
0
0
0
0
0
0
0
0
0
0
0
0
0
0
0
0
0
0
0
0
0
0
0
0
0
0
0
0
0
0
0
0
0
0
0
0
0
0
0
0
0
0
0
0
0
0
0
0
0
0
0
0
0
0
0
0
0
0
0
0
0
0
0
0
0
0
0
0
0
0
0
0
0
0
0
0
0
0
0
0
0
0
0
0
0
0
0
0
0
0
0
0
0
0
0
0
0
0
0
0
0
0
0
0
0
0
0
0
0
0
0
0
0
0
0
0
0
0
0
0
0
0
0
0
0
0
0
0
0
0
0
0
0
0
0
0
0
0
0
0
0
0
0
0
0
0
0
0
0
0
0
0
0
0
0
0
0
0
0
0
0
0
0
0
0
0
0
0
0
0
0
0
0
0
0
0
0
0
0
0
0
0
0
0
0
0
0
0
0
0
0
0
0
0
0
0
0
0
0
0
0
0
0
0
0
0
0
0
0
0
0
0
0
0
0
0
0
0
0
0
0
0
0
0
0
0
0
0
0
0
0
0
0
0
0
0
0
0
0
0
0
0
0
0
0
0
0
0
0
0
0
0
0
0
0
0
0
0
0
0
0
0
0
0
0
0
0
0
0
0
0
0
0
0
0
0
0
0
0
0
0
0
0
0
0
0
0
0
0
0
0
0
0
0
0
0
0
0
0
0
0
0
0
0
0
0
0
0
0
0
0
0
0
0
0
0
0
0
0
0
0
0
0
0
0
0
0
0
0
0
0
0
0
0
0
0
0
0
0
0
0
0
0
0
0
0
0
0
0
0
0
0
0
0
0
0
0
0
0
0
0
0
0
0
0
0
0
0
0
0
0
0
0
0
0
0
0
0
0
0
0
0
0
0
0
0
0
0
0
0
0
0
0
0
0
0
0
0
0
0
0
0
0
0
0
0
0
0
0
0
0
0
0
0
0
0
0
0
0
0
0
0
0
0
0
0
0
0
0
0
0
0
0
0
0
0
0
0
0
0
0
0
0
0
0
0
0
0
0
0
0
0
0
0
0
0
0
0
0
0
0
0
0
0
0
0
0
0
0
0
0
0
0
0
0
0
0
0
0
0
0
0
0
0
0
0
0
0
0
0
0
0
0
0
0
0
0
0
0
0
0
0
0
0
0
0
0
0
0
0
0
0
0
0
0
0
0
0
0
0
0
0
0
0
0
0
0
0
0
0
0
0
0
0
0
0
0
0
0
0
0
0
0
0
0
0
0
0
0
0
0
0
0
0
0
0
0
0
0
0
0
0
0
0
0
0
0
0
0
0
0
0
0
0
0
0
0
0
0
0
0
0
0
0
0
0
0
0
0
0
0
0
0
0
0
0
0
0
0
0
0
0
0
0
0
0
0
0
0
0
0
0
0
0
0
0
0
0
0
0
0
0
0
0
0
0
0
0
0
0
0
0
0
0
0
0
0
0
0
0
0
0
0
0
0
0
0
0
0
0
0
0
0
0
0
0
0
0
0
0
0
0
0
0
0
0
0
0
0
0
0
0
0
0
0
0
0
0
0
0
0
0
0
0
0
0
0
0
0
0
0
0
0
0
0
0
0
0
0
0
0
0
0
0
0
0
0
0
0
0
0
0
0
0
0
0
0
0
0
0
0
0
0
0
0
0
0
0
0
0
0
0
0
0
0
0
0
0
0
0
0
0
0
0
0
0
0
0
0
0
0
0
0
0
0
0
0
0
0
0
0
0
0
0
0
0
0
0
0
0
0
0
0
0
0
0
0
0
0
0
0
0
0
0
0
0
0
0
0
0
0
0
0
0
0
0
0
0
0
0
0
0
0
0
0
0
0
0
0
0
0
0
0
0
0
0
0
0
0
0
0
0
0
0
0
0
0
0
0
0
0
0
0
0
0
0
0
0
0
0
0
0
0
0
0
0
0
0
0
0
0
0
0
0
0
0
0
0
0
0
0
0
0
0
0
0
0
0
0
0
0
0
0
0
0
0
0
0
0
0
0
0
0
0
0
0
0
0
0
0
0
0
0
0
0
0
0
0
0
0
0
0
0
0
0
0
0
0
0
0
0
0
0
0
0
0
0
0
0
0
0
0
0
0
0
0
0
0
0
0
0
0
0
0
0
0
0
0
0
0
0
0
0
0
0
0
0
0
0
0
0
0
0
0
0
0
0
0
0
0
0
0
0
0
0
0
0
0
0
0
0
0
0
0
0
0
0
0
0
0
0
0
0
0
0
0
0
0
0
0
0
0
0
0
0
0
0
0
0
0
0
0
0
0
0
0
0
0
0
0
0
0
0
0
0
0
0
0
0
0
0
0
0
0
0
0
0
0
0
0
0
0
0
0
0
0
0
0
0
0
0
0
0
0
0
0
0
0
0
0
0
0
0
0
0
0
0
0
0
0
0
0
0
0
0
0
0
0
0
0
0
0
0
0
0
0
0
0
0
0
0
0
0
0
0
0
0
0
0
0
0
0
0
0
0
0
0
0
0
0
0
0
0
0
0
0
0
0
0
0
0
0
0
0
0
0
0
0
0
0
0
0
0
0
0
0
0
0
0
0
0
0
0
0
0
0
0
0
0
0
0
0
0
0
0
0
0
0
0
0
0
0
0
0
0
0
0
0
0
0
0
0
0
0
0
0
0
0
0
0
0
0
0
0
0
0
0
0
0
0
0
0
0
0
0
0
0
0
0
0
0
0
0
0
0
0
0
0
0
0
0
0
0
0
0
0
0
0
0
0
0
0
0
0
0
0
0
0
0
0
0
0
0
0
0
0
0
0
0
0
0
0
0
0
0
0
0
0
0
0
0
0
0
0
0
0
0
0
0
0
0
0
0
0
0
0
0
0
0
0
0
0
0
0
0.0776415
0.052903
0.0436505
0.0357426
0.03048
0.0271088
0.0248019
0.023116
0.0218008
0.0207277
0.0198235
0.0190436
0.0183596
0.0177519
0.0172066
0.0167134
0.0162643
0.0158532
0.0154749
0.0151254
0.0148012
0.0144993
0.0142174
0.0139533
0.0137051
0.0134714
0.0132506
0.0130416
0.0128434
0.0126549
0.0124753
0.012304
0.0121401
0.0119833
0.0118328
0.0116884
0.0115494
0.0114156
0.0112866
0.011162
0.0110417
0.0109253
0.0108127
0.0107035
0.0105976
0.0104948
0.0103949
0.0102979
0.0102035
0.0101117
0.0100224
0.00993547
0.00985091
0.00976868
0.00968882
0.00961135
0.00953634
0.00946387
0.00939398
0.00932673
0.00926209
0.00919991
0.00913994
0.00908169
0.00902446
0.00896727
0.00890889
0.00884783
0.00878244
0.00871107
0.00863221
0.00854484
0.00844868
0.0083446
0.00823497
0.008124
0.00801793
0.00792505
0.00785553
0.00782084
0.00783284
0.0079026
0.00803873
0.00824562
0.00852146
0.00885634
0.00923067
0.00961394
0.00996424
0.0102288
0.0103455
0.0102468
0.00986449
0.00913841
0.00802577
0.00651078
0.00461822
0.00242784
8.49393e-05
-0.00219747
-0.0041561
-0.00551031
-0.00599934
-0.00541343
-0.003616
-0.000554993
0.00374484
0.00919144
0.0156413
0.0229174
0.0308236
0.0391599
0.0477227
0.0562986
0.0646866
0.0727054
0.0801522
0.0867897
0.0924025
0.0968598
0.10011
0.102129
0.102897
0.102411
0.100711
0.0978909
0.0940883
0.0894707
0.0842228
0.0785357
0.0725951
0.0665708
0.0606093
0.0548283
0.0493167
0.0441361
0.0393248
0.0349013
0.0308691
0.0272206
0.0239397
0.0210054
0.018393
0.0160767
0.0140298
0.0122266
0.010642
0.00925284
0.00803729
0.00697552
0.00604947
0.00524285
0.00454107
0.00393112
0.00340147
0.0029419
0.00254342
0.00219813
0.0018991
0.00164025
0.00141629
0.0012226
0.00105514
0.000910409
0.000785366
0.000677361
0.000584096
0.000503581
0.000434087
0.00037412
0.000322383
0.000277757
0.00023927
0.000206084
0.000177475
0.000152814
0.000131561
0.000113247
9.74685e-05
8.38765e-05
7.21696e-05
6.20879e-05
5.3407e-05
4.59334e-05
3.95001e-05
3.3963e-05
2.9198e-05
2.5098e-05
2.15707e-05
1.85365e-05
1.59268e-05
1.36826e-05
1.17529e-05
1.00939e-05
8.66778e-06
7.44209e-06
6.38878e-06
5.48373e-06
4.70619e-06
4.03829e-06
3.46465e-06
2.97204e-06
2.54907e-06
2.18596e-06
1.87428e-06
1.60678e-06
1.37724e-06
1.1803e-06
1.01136e-06
8.6645e-07
7.42183e-07
6.35631e-07
5.44284e-07
4.65984e-07
3.98878e-07
3.41376e-07
2.92112e-07
2.49912e-07
2.13769e-07
1.82819e-07
1.5632e-07
1.33637e-07
1.14223e-07
9.76093e-08
8.33957e-08
7.12375e-08
6.08396e-08
5.19489e-08
4.43487e-08
3.78534e-08
3.23044e-08
2.75656e-08
2.35203e-08
2.00679e-08
1.71214e-08
1.46059e-08
1.24567e-08
1.06193e-08
9.04749e-09
7.7025e-09
6.55105e-09
5.56392e-09
4.71515e-09
3.98241e-09
3.34846e-09
2.80265e-09
2.34154e-09
1.96725e-09
1.68321e-09
1.48813e-09
1.37019e-09
1.30394e-09
1.25206e-09
1.17266e-09
1.0305e-09
8.08963e-10
5.18264e-10
1.96495e-10
-9.82791e-11
-3.03396e-10
-3.70318e-10
-2.80963e-10
-5.622e-11
2.46629e-10
5.47459e-10
7.64214e-10
8.35152e-10
7.35867e-10
4.86044e-10
1.44032e-10
-2.09092e-10
-4.91214e-10
-6.4041e-10
-6.29875e-10
-4.72822e-10
-2.16652e-10
7.12758e-11
3.21839e-10
4.81176e-10
5.22235e-10
4.48419e-10
2.89297e-10
9.04043e-11
-9.95468e-11
-2.40507e-10
-3.09176e-10
-3.01892e-10
-2.32422e-10
-1.26006e-10
-1.1699e-11
8.48336e-11
1.46462e-10
1.66819e-10
1.4965e-10
1.05994e-10
5.02823e-11
-3.51026e-12
-4.48046e-11
-6.79602e-11
-7.23863e-11
-6.1518e-11
-4.11496e-11
-1.76483e-11
3.52558e-12
1.87398e-11
2.64899e-11
2.71682e-11
2.24908e-11
1.47945e-11
6.39151e-12
-8.96231e-13
-5.97203e-12
-8.48373e-12
-8.68348e-12
-7.20342e-12
-4.81861e-12
-2.25055e-12
-4.00638e-14
1.50496e-12
2.29897e-12
2.42678e-12
2.07377e-12
1.45803e-12
7.7765e-13
1.78922e-13
-2.54956e-13
-4.9908e-13
-5.72245e-13
-5.18733e-13
-3.91305e-13
-2.38339e-13
-9.62337e-14
1.32613e-14
8.19884e-14
1.12106e-13
1.12021e-13
9.25948e-14
6.4254e-14
3.5233e-14
1.08687e-14
-6.30489e-15
-1.59763e-14
-1.92817e-14
-1.80548e-14
-1.42321e-14
-9.46642e-15
-4.94005e-15
-1.33592e-15
1.08963e-15
2.3853e-15
2.77627e-15
2.55464e-15
2.00157e-15
1.34247e-15
7.30147e-16
2.4762e-16
-7.78776e-17
-2.56793e-16
-3.19973e-16
-3.04954e-16
-2.4677e-16
-1.73033e-16
-1.02353e-16
-4.49834e-17
-4.62718e-18
1.93992e-17
3.01777e-17
3.16433e-17
2.75606e-17
2.09718e-17
1.4006e-17
7.92634e-18
3.3009e-18
2.15274e-19
-1.52869e-18
-2.25496e-18
-2.30488e-18
-1.97427e-18
-1.48623e-18
-9.88051e-19
-5.61911e-19
-2.41312e-19
-2.79182e-20
9.41523e-20
1.47758e-19
1.55912e-19
1.3808e-19
1.08767e-19
7.75444e-20
4.98549e-20
2.80883e-20
1.26384e-20
2.77647e-21
-2.71196e-21
-5.11415e-21
-5.56185e-21
-4.93498e-21
-3.84987e-21
-2.69324e-21
-1.67492e-21
-8.81904e-22
-3.25018e-22
2.56438e-23
2.16327e-22
2.94694e-22
3.01991e-22
2.70029e-22
2.2107e-22
1.69198e-22
1.22237e-22
8.36574e-23
5.41851e-23
3.30228e-23
1.86933e-23
9.56653e-24
4.15082e-24
1.2219e-24
-1.48081e-25
-6.16112e-25
-6.17913e-25
-4.22545e-25
-1.81995e-25
2.85798e-26
1.80778e-25
2.72009e-25
3.11904e-25
3.14157e-25
2.92128e-25
2.56842e-25
2.16425e-25
1.7628e-25
1.39593e-25
1.07916e-25
8.16972e-26
6.07088e-26
4.43642e-26
3.19303e-26
2.26622e-26
1.58773e-26
1.09902e-26
7.52162e-27
5.09305e-27
3.41387e-27
2.2664e-27
1.49085e-27
9.72093e-28
6.28513e-28
4.03078e-28
2.56482e-28
1.61969e-28
1.01535e-28
6.31983e-29
3.90651e-29
2.39854e-29
1.46303e-29
8.8671e-30
5.34066e-30
3.19709e-30
1.90247e-30
1.12548e-30
6.62015e-31
3.87216e-31
2.25237e-31
1.30308e-31
7.49873e-32
4.29266e-32
2.4447e-32
1.38522e-32
7.80985e-33
4.38153e-33
2.44624e-33
1.35923e-33
7.51683e-34
4.13763e-34
2.26709e-34
1.23655e-34
6.71434e-35
3.62967e-35
1.95356e-35
1.04689e-35
5.58616e-36
2.96812e-36
1.57046e-36
8.27497e-37
4.3423e-37
2.26936e-37
1.18123e-37
6.12392e-38
3.16232e-38
1.62659e-38
8.33415e-39
4.25374e-39
2.16282e-39
1.09553e-39
5.52839e-40
2.77941e-40
1.3922e-40
6.94797e-41
3.45488e-41
1.71175e-41
8.45067e-42
4.15716e-42
2.03783e-42
9.95446e-43
4.84568e-43
2.35066e-43
1.13641e-43
5.47518e-44
2.629e-44
1.25812e-44
6.0007e-45
2.85258e-45
1.35158e-45
6.38294e-46
3.00458e-46
1.40974e-46
6.59323e-47
3.07373e-47
1.4284e-47
6.61703e-48
3.05568e-48
1.40668e-48
6.45553e-49
2.95342e-49
1.34705e-49
6.12509e-50
2.77664e-50
1.25491e-50
5.65456e-51
2.5403e-51
1.13783e-51
5.08135e-52
2.26257e-52
1.0045e-52
4.44664e-53
1.96269e-53
8.63801e-54
3.79077e-54
1.65881e-54
7.23816e-55
3.1494e-55
1.36647e-55
5.91227e-56
2.55089e-56
1.09754e-56
4.70915e-57
2.01497e-57
8.59802e-58
3.65882e-58
1.55275e-58
6.57177e-59
2.7739e-59
1.1677e-59
4.90239e-60
2.0527e-60
8.57217e-61
3.57032e-61
1.48313e-61
6.14484e-62
2.53926e-62
1.04658e-62
4.30243e-63
1.76414e-63
7.21496e-64
2.94322e-64
1.19757e-64
4.86046e-65
1.96767e-65
7.94567e-66
3.2005e-66
1.28592e-66
5.15383e-67
2.06046e-67
8.21717e-68
3.26895e-68
1.29726e-68
5.13545e-69
2.02801e-69
7.98922e-70
3.13968e-70
1.23088e-70
4.81395e-71
1.87821e-71
7.31051e-72
2.83868e-72
1.09964e-72
4.2497e-73
1.63848e-73
6.30233e-74
2.41848e-74
9.25911e-75
3.53658e-75
1.34769e-75
5.12379e-76
1.94352e-76
7.35512e-77
2.77712e-77
1.04618e-77
3.93212e-78
1.47456e-78
5.51715e-79
2.05962e-79
7.6715e-80
2.85102e-80
1.05718e-80
3.91136e-81
1.44392e-81
5.31855e-82
1.95472e-82
7.16834e-83
2.623e-83
9.57693e-84
3.48904e-84
1.26835e-84
4.60075e-85
1.66525e-85
6.01437e-86
2.16753e-86
7.79488e-87
2.7972e-87
1.00163e-87
3.57907e-88
1.27617e-88
4.54075e-89
1.61224e-89
5.71237e-90
2.01972e-90
7.12616e-91
2.50907e-91
8.81587e-92
3.09111e-92
1.08159e-92
3.77673e-93
1.31605e-93
4.57653e-94
1.58821e-94
5.50038e-95
1.90104e-95
6.55699e-96
2.25703e-96
7.75337e-97
2.65807e-97
9.09426e-98
3.10524e-98
1.05816e-98
3.59867e-99
1.22142e-99
4.13737e-100
1.39869e-100
4.7191e-101
1.58905e-101
5.34026e-102
1.79115e-102
5.99586e-103
2.00318e-103
6.67948e-104
2.22289e-104
7.38332e-105
2.44762e-105
8.09833e-106
2.6743e-106
8.81434e-107
2.89958e-107
9.52028e-108
3.11985e-108
1.02045e-108
3.33136e-109
1.0855e-109
3.53031e-110
1.14598e-110
3.71298e-111
1.20075e-111
3.87585e-112
1.24873e-112
4.01568e-113
1.28896e-113
4.12966e-114
1.32063e-114
4.21547e-115
1.3431e-115
4.27139e-116
1.35591e-116
4.29633e-117
1.35884e-117
4.28988e-118
1.35186e-118
4.25231e-119
1.33515e-119
4.18457e-120
1.30914e-120
4.08824e-121
1.2744e-121
3.96546e-122
1.2317e-122
3.81889e-123
1.18194e-123
3.65156e-124
1.12613e-124
3.46682e-125
1.06538e-125
3.26819e-126
1.0008e-126
3.05929e-127
9.33536e-128
2.84368e-128
8.64712e-129
2.62484e-129
7.95387e-130
2.40602e-130
7.26548e-131
2.19017e-131
6.59085e-132
1.97995e-132
5.93773e-133
1.77762e-133
5.31269e-134
1.58506e-134
4.721e-135
1.40372e-135
4.16669e-136
1.2347e-136
3.65255e-137
1.07869e-137
3.18025e-138
9.36041e-139
2.75041e-139
8.06808e-140
2.36274e-140
6.9077e-141
2.01616e-141
5.87481e-142
1.70899e-142
4.96323e-143
1.43902e-143
4.16537e-144
1.20371e-144
3.47275e-145
1.00025e-145
2.87629e-146
8.2574e-147
2.3667e-147
6.77226e-148
1.93471e-148
5.5181e-149
1.57129e-149
4.46706e-150
1.26789e-150
3.59285e-151
1.01647e-151
2.87114e-152
8.09678e-153
2.27968e-153
6.40825e-154
1.7985e-154
5.03949e-155
1.40984e-155
3.93789e-156
1.09816e-156
3.0576e-157
8.49976e-158
2.3591e-158
6.53733e-159
1.80872e-159
4.9964e-160
1.37804e-160
3.79478e-161
1.04335e-161
2.86415e-162
7.85027e-163
2.14831e-163
5.86994e-164
1.60139e-164
4.36201e-165
1.18633e-165
3.22146e-166
8.73436e-167
2.36451e-167
6.3912e-168
1.72488e-168
4.64803e-169
1.25059e-169
3.35968e-170
9.01195e-171
2.41368e-171
6.45474e-172
1.72354e-172
4.59519e-173
1.22329e-173
3.25163e-174
8.63013e-175
2.28707e-175
6.05187e-176
1.599e-176
4.21848e-177
1.11125e-177
2.92296e-178
7.67688e-179
2.01326e-179
5.27194e-180
1.37846e-180
3.59896e-181
9.38245e-182
2.44238e-182
6.34849e-183
1.64774e-183
4.27038e-184
1.10511e-184
2.85569e-185
7.36851e-186
1.89851e-186
4.88442e-187
1.25481e-187
3.21895e-188
8.24552e-189
2.10907e-189
5.38687e-190
1.37389e-190
3.49898e-191
8.89825e-192
2.25965e-192
5.73e-193
1.45092e-193
3.66869e-194
9.26308e-195
2.3355e-195
5.88008e-196
1.47832e-196
3.71138e-197
9.30432e-198
2.32926e-198
5.82284e-199
1.45358e-199
3.62349e-200
9.01995e-201
2.24217e-201
5.56572e-202
1.37964e-202
3.41506e-203
8.44158e-204
2.08373e-204
5.13632e-205
1.26432e-205
3.10783e-206
7.62873e-207
1.87001e-207
4.57755e-208
1.11898e-208
2.73154e-209
6.65878e-210
1.621e-210
3.94068e-211
9.56672e-212
2.31931e-212
5.61509e-213
1.35756e-213
3.2777e-214
7.90289e-215
1.90287e-215
4.57552e-216
1.0987e-216
2.63469e-217
6.30943e-218
1.50891e-218
3.60368e-219
8.59493e-220
2.04716e-220
4.86942e-221
1.15669e-221
2.74393e-222
6.50048e-223
1.53793e-223
3.63366e-224
8.57376e-225
2.02031e-225
4.7543e-226
1.11732e-226
2.62233e-227
6.14641e-228
1.43873e-228
3.36327e-229
7.8518e-230
1.83064e-230
4.26248e-231
9.91173e-232
2.30178e-232
5.33837e-233
1.23647e-233
2.86013e-234
6.60726e-235
1.52436e-235
3.51226e-236
8.08201e-237
1.85732e-237
4.26272e-238
9.77063e-239
2.23663e-239
5.11333e-240
1.16748e-240
2.66216e-241
6.06259e-242
1.37886e-242
3.13202e-243
7.10508e-244
1.60974e-244
3.64236e-245
8.23104e-246
1.85767e-246
4.18725e-247
9.42614e-248
2.11926e-248
4.75862e-249
1.06715e-249
2.39011e-250
5.34635e-251
1.19439e-251
2.66493e-252
5.9385e-253
1.32165e-253
2.93772e-254
6.52163e-255
1.44595e-255
3.2019e-256
7.08132e-257
1.56414e-257
3.4506e-258
7.60271e-259
1.67301e-259
3.67696e-260
8.07117e-261
1.76947e-261
3.87444e-262
8.47297e-263
1.85065e-263
4.03712e-264
8.79596e-265
1.91407e-265
4.16002e-266
9.03018e-267
1.95778e-267
4.23931e-268
9.16838e-269
1.98042e-269
4.27256e-270
9.20635e-271
1.98132e-271
4.25885e-272
9.14321e-273
1.96054e-273
4.19878e-274
8.98136e-275
1.91882e-275
4.09447e-276
8.7264e-277
1.85757e-277
3.94941e-278
8.38673e-279
1.77881e-279
3.76827e-280
7.97319e-281
1.685e-281
3.55668e-282
7.4984e-283
1.57896e-283
3.32089e-284
6.97618e-285
1.46373e-285
3.06753e-286
6.42091e-287
1.34242e-287
2.80325e-288
5.84682e-289
1.21804e-289
2.53448e-290
5.26747e-291
1.09346e-291
2.26719e-292
4.69527e-293
9.71229e-294
2.00665e-294
4.14104e-295
8.53566e-296
1.75734e-296
3.61379e-297
7.42272e-298
1.52284e-298
3.1206e-299
6.38726e-300
1.30582e-300
2.66654e-301
5.43885e-302
1.10805e-302
2.2548e-303
4.58304e-304
9.30455e-305
1.88684e-305
3.82182e-306
7.73224e-307
1.56257e-307
3.15407e-308
6.35922e-309
1.28067e-309
2.57615e-310
5.17614e-311
1.03883e-311
2.08249e-312
4.16989e-313
8.3401e-314
1.66618e-314
3.32488e-315
6.62728e-316
1.31947e-316
2.62405e-317
5.21256e-318
1.03427e-318
2.04993e-319
4.05826e-320
8.02857e-321
1.58101e-321
3.11261e-322
5.43472e-323
4.94066e-324
0
0
0
0
0
0
0
0
0
0
0
0
0
0
0
0
0
0
0
0
0
0
0
0
0
0
0
0
0
0
0
0
0
0
0
0
0
0
0
0
0
0
0
0
0
0
0
0
0
0
0
0
0
0
0
0
0
0
0
0
0
0
0
0
0
0
0
0
0
0
0
0
0
0
0
0
0
0
0
0
0
0
0
0
0
0
0
0
0
0
0
0
0
0
0
0
0
0
0
0
0
0
0
0
0
0
0
0
0
0
0
0
0
0
0
0
0
0
0
0
0
0
0
0
0
0
0
0
0
0
0
0
0
0
0
0
0
0
0
0
0
0
0
0
0
0
0
0
0
0
0
0
0
0
0
0
0
0
0
0
0
0
0
0
0
0
0
0
0
0
0
0
0
0
0
0
0
0
0
0
0
0
0
0
0
0
0
0
0
0
0
0
0
0
0
0
0
0
0
0
0
0
0
0
0
0
0
0
0
0
0
0
0
0
0
0
0
0
0
0
0
0
0
0
0
0
0
0
0
0
0
0
0
0
0
0
0
0
0
0
0
0
0
0
0
0
0
0
0
0
0
0
0
0
0
0
0
0
0
0
0
0
0
0
0
0
0
0
0
0
0
0
0
0
0
0
0
0
0
0
0
0
0
0
0
0
0
0
0
0
0
0
0
0
0
0
0
0
0
0
0
0
0
0
0
0
0
0
0
0
0
0
0
0
0
0
0
0
0
0
0
0
0
0
0
0
0
0
0
0
0
0
0
0
0
0
0
0
0
0
0
0
0
0
0
0
0
0
0
0
0
0
0
0
0
0
0
0
0
0
0
0
0
0
0
0
0
0
0
0
0
0
0
0
0
0
0
0
0
0
0
0
0
0
0
0
0
0
0
0
0
0
0
0
0
0
0
0
0
0
0
0
0
0
0
0
0
0
0
0
0
0
0
0
0
0
0
0
0
0
0
0
0
0
0
0
0
0
0
0
0
0
0
0
0
0
0
0
0
0
0
0
0
0
0
0
0
0
0
0
0
0
0
0
0
0
0
0
0
0
0
0
0
0
0
0
0
0
0
0
0
0
0
0
0
0
0
0
0
0
0
0
0
0
0
0
0
0
0
0
0
0
0
0
0
0
0
0
0
0
0
0
0
0
0
0
0
0
0
0
0
0
0
0
0
0
0
0
0
0
0
0
0
0
0
0
0
0
0
0
0
0
0
0
0
0
0
0
0
0
0
0
0
0
0
0
0
0
0
0
0
0
0
0
0
0
0
0
0
0
0
0
0
0
0
0
0
0
0
0
0
0
0
0
0
0
0
0
0
0
0
0.062787
0.0345542
0.0299574
0.025277
0.0221391
0.0200069
0.0184495
0.0172639
0.0163155
0.0155312
0.0148652
0.0142884
0.013781
0.0133294
0.0129237
0.0125563
0.0122216
0.0119149
0.0116326
0.0113716
0.0111293
0.0109037
0.0106929
0.0104953
0.0103096
0.0101346
0.00996925
0.00981273
0.0096642
0.00952296
0.0093884
0.00925997
0.00913718
0.00901959
0.0089068
0.00879848
0.00869429
0.00859395
0.00849721
0.00840383
0.0083136
0.00822632
0.00814181
0.00805993
0.00798051
0.00790342
0.00782854
0.00775576
0.00768499
0.00761613
0.00754911
0.00748389
0.00742043
0.00735872
0.00729877
0.00724061
0.00718428
0.00712985
0.00707736
0.00702686
0.00697833
0.0069317
0.00688678
0.00684324
0.00680056
0.00675805
0.00671479
0.00666967
0.00662144
0.00656882
0.00651063
0.00644599
0.00637455
0.00629679
0.0062143
0.00613001
0.0060484
0.00597554
0.00591895
0.00588727
0.0058896
0.00593459
0.00602927
0.00617766
0.00637932
0.00662786
0.00690969
0.0072031
0.00747776
0.00769511
0.00780942
0.00777004
0.00752518
0.00702737
0.00624045
0.00514615
0.00375387
0.00211263
0.000320432
-0.00147011
-0.00306039
-0.00423003
-0.00476707
-0.00449586
-0.0032966
-0.00112098
0.00201212
0.00602612
0.0107988
0.0161771
0.0219904
0.0280654
0.034227
0.0403001
0.0461258
0.0515719
0.0565087
0.0608015
0.0643422
0.0670818
0.0690222
0.0701808
0.0705732
0.0702196
0.0691562
0.0674388
0.0651379
0.0623344
0.0591162
0.0555771
0.0518145
0.0479253
0.0440012
0.0401236
0.0363607
0.0327658
0.0293775
0.026221
0.0233097
0.020648
0.0182325
0.0160548
0.0141024
0.0123606
0.0108132
0.0094435
0.00823505
0.00717182
0.00623861
0.00542127
0.00470674
0.00408309
0.00353954
0.00306639
0.00265497
0.00229757
0.00198737
0.00171833
0.00148515
0.00128317
0.00110831
0.000956997
0.000826121
0.000712964
0.000615162
0.000530659
0.000457669
0.00039464
0.000340227
0.000293264
0.000252739
0.000217777
0.000187621
0.000161614
0.000139191
0.000119861
0.000103199
8.8841e-05
7.6469e-05
6.58104e-05
5.66293e-05
4.87221e-05
4.1913e-05
3.60504e-05
3.10035e-05
2.66593e-05
2.29206e-05
1.97035e-05
1.69354e-05
1.45542e-05
1.2506e-05
1.07446e-05
9.22986e-06
7.92754e-06
6.80799e-06
5.84569e-06
5.01867e-06
4.30801e-06
3.69744e-06
3.17292e-06
2.7224e-06
2.33549e-06
2.00326e-06
1.71803e-06
1.47317e-06
1.26302e-06
1.08267e-06
9.27918e-07
7.9516e-07
6.81284e-07
5.83619e-07
4.99871e-07
4.28068e-07
3.66516e-07
3.13761e-07
2.68552e-07
2.29816e-07
1.96632e-07
1.68209e-07
1.43869e-07
1.23027e-07
1.05184e-07
8.9912e-08
7.68417e-08
6.56583e-08
5.60911e-08
4.79082e-08
4.09107e-08
3.49281e-08
2.98144e-08
2.54448e-08
2.17126e-08
1.85264e-08
1.58075e-08
1.34878e-08
1.15083e-08
9.81805e-09
8.37348e-09
7.13802e-09
6.08102e-09
5.17656e-09
4.40196e-09
3.73666e-09
3.16205e-09
2.66246e-09
2.2269e-09
1.85063e-09
1.53531e-09
1.28669e-09
1.11002e-09
1.00417e-09
9.56731e-10
9.42328e-10
9.25902e-10
8.70755e-10
7.49434e-10
5.53941e-10
3.01403e-10
3.2435e-11
-1.98358e-10
-3.37537e-10
-3.49296e-10
-2.28023e-10
-2.65306e-12
2.6906e-10
5.15104e-10
6.68489e-10
6.85598e-10
5.58177e-10
3.15459e-10
1.59203e-11
-2.68759e-10
-4.72794e-10
-5.52999e-10
-4.98638e-10
-3.32156e-10
-1.01223e-10
1.35088e-10
3.21844e-10
4.21252e-10
4.20027e-10
3.29822e-10
1.81451e-10
1.51388e-11
-1.3023e-10
-2.26025e-10
-2.59021e-10