# vtk DataFile Version 2.0
FlowField
ASCII
DATASET STRUCTURED_GRID
DIMENSIONS 1602 1 52
POINTS 83304 float
0 0 0
0.1 0 0
0.2 0 0
0.3 0 0
0.4 0 0
0.5 0 0
0.6 0 0
0.7 0 0
0.8 0 0
0.9 0 0
1 0 0
1.1 0 0
1.2 0 0
1.3 0 0
1.4 0 0
1.5 0 0
1.6 0 0
1.7 0 0
1.8 0 0
1.9 0 0
2 0 0
2.1 0 0
2.2 0 0
2.3 0 0
2.4 0 0
2.5 0 0
2.6 0 0
2.7 0 0
2.8 0 0
2.9 0 0
3 0 0
3.1 0 0
3.2 0 0
3.3 0 0
3.4 0 0
3.5 0 0
3.6 0 0
3.7 0 0
3.8 0 0
3.9 0 0
4 0 0
4.1 0 0
4.2 0 0
4.3 0 0
4.4 0 0
4.5 0 0
4.6 0 0
4.7 0 0
4.8 0 0
4.9 0 0
5 0 0
5.1 0 0
5.2 0 0
5.3 0 0
5.4 0 0
5.5 0 0
5.6 0 0
5.7 0 0
5.8 0 0
5.9 0 0
6 0 0
6.1 0 0
6.2 0 0
6.3 0 0
6.4 0 0
6.5 0 0
6.6 0 0
6.7 0 0
6.8 0 0
6.9 0 0
7 0 0
7.1 0 0
7.2 0 0
7.3 0 0
7.4 0 0
7.5 0 0
7.6 0 0
7.7 0 0
7.8 0 0
7.9 0 0
8 0 0
8.1 0 0
8.2 0 0
8.3 0 0
8.4 0 0
8.5 0 0
8.6 0 0
8.7 0 0
8.8 0 0
8.9 0 0
9 0 0
9.1 0 0
9.2 0 0
9.3 0 0
9.4 0 0
9.5 0 0
9.6 0 0
9.7 0 0
9.8 0 0
9.9 0 0
10 0 0
10.1 0 0
10.2 0 0
10.3 0 0
10.4 0 0
10.5 0 0
10.6 0 0
10.7 0 0
10.8 0 0
10.9 0 0
11 0 0
11.1 0 0
11.2 0 0
11.3 0 0
11.4 0 0
11.5 0 0
11.6 0 0
11.7 0 0
11.8 0 0
11.9 0 0
12 0 0
12.1 0 0
12.2 0 0
12.3 0 0
12.4 0 0
12.5 0 0
12.6 0 0
12.7 0 0
12.8 0 0
12.9 0 0
13 0 0
13.1 0 0
13.2 0 0
13.3 0 0
13.4 0 0
13.5 0 0
13.6 0 0
13.7 0 0
13.8 0 0
13.9 0 0
14 0 0
14.1 0 0
14.2 0 0
14.3 0 0
14.4 0 0
14.5 0 0
14.6 0 0
14.7 0 0
14.8 0 0
14.9 0 0
15 0 0
15.1 0 0
15.2 0 0
15.3 0 0
15.4 0 0
15.5 0 0
15.6 0 0
15.7 0 0
15.8 0 0
15.9 0 0
16 0 0
16.1 0 0
16.2 0 0
16.3 0 0
16.4 0 0
16.5 0 0
16.6 0 0
16.7 0 0
16.8 0 0
16.9 0 0
17 0 0
17.1 0 0
17.2 0 0
17.3 0 0
17.4 0 0
17.5 0 0
17.6 0 0
17.7 0 0
17.8 0 0
17.9 0 0
18 0 0
18.1 0 0
18.2 0 0
18.3 0 0
18.4 0 0
18.5 0 0
18.6 0 0
18.7 0 0
18.8 0 0
18.9 0 0
19 0 0
19.1 0 0
19.2 0 0
19.3 0 0
19.4 0 0
19.5 0 0
19.6 0 0
19.7 0 0
19.8 0 0
19.9 0 0
20 0 0
20.1 0 0
20.2 0 0
20.3 0 0
20.4 0 0
20.5 0 0
20.6 0 0
20.7 0 0
20.8 0 0
20.9 0 0
21 0 0
21.1 0 0
21.2 0 0
21.3 0 0
21.4 0 0
21.5 0 0
21.6 0 0
21.7 0 0
21.8 0 0
21.9 0 0
22 0 0
22.1 0 0
22.2 0 0
22.3 0 0
22.4 0 0
22.5 0 0
22.6 0 0
22.7 0 0
22.8 0 0
22.9 0 0
23 0 0
23.1 0 0
23.2 0 0
23.3 0 0
23.4 0 0
23.5 0 0
23.6 0 0
23.7 0 0
23.8 0 0
23.9 0 0
24 0 0
24.1 0 0
24.2 0 0
24.3 0 0
24.4 0 0
24.5 0 0
24.6 0 0
24.7 0 0
24.8 0 0
24.9 0 0
25 0 0
25.1 0 0
25.2 0 0
25.3 0 0
25.4 0 0
25.5 0 0
25.6 0 0
25.7 0 0
25.8 0 0
25.9 0 0
26 0 0
26.1 0 0
26.2 0 0
26.3 0 0
26.4 0 0
26.5 0 0
26.6 0 0
26.7 0 0
26.8 0 0
26.9 0 0
27 0 0
27.1 0 0
27.2 0 0
27.3 0 0
27.4 0 0
27.5 0 0
27.6 0 0
27.7 0 0
27.8 0 0
27.9 0 0
28 0 0
28.1 0 0
28.2 0 0
28.3 0 0
28.4 0 0
28.5 0 0
28.6 0 0
28.7 0 0
28.8 0 0
28.9 0 0
29 0 0
29.1 0 0
29.2 0 0
29.3 0 0
29.4 0 0
29.5 0 0
29.6 0 0
29.7 0 0
29.8 0 0
29.9 0 0
30 0 0
30.1 0 0
30.2 0 0
30.3 0 0
30.4 0 0
30.5 0 0
30.6 0 0
30.7 0 0
30.8 0 0
30.9 0 0
31 0 0
31.1 0 0
31.2 0 0
31.3 0 0
31.4 0 0
31.5 0 0
31.6 0 0
31.7 0 0
31.8 0 0
31.9 0 0
32 0 0
32.1 0 0
32.2 0 0
32.3 0 0
32.4 0 0
32.5 0 0
32.6 0 0
32.7 0 0
32.8 0 0
32.9 0 0
33 0 0
33.1 0 0
33.2 0 0
33.3 0 0
33.4 0 0
33.5 0 0
33.6 0 0
33.7 0 0
33.8 0 0
33.9 0 0
34 0 0
34.1 0 0
34.2 0 0
34.3 0 0
34.4 0 0
34.5 0 0
34.6 0 0
34.7 0 0
34.8 0 0
34.9 0 0
35 0 0
35.1 0 0
35.2 0 0
35.3 0 0
35.4 0 0
35.5 0 0
35.6 0 0
35.7 0 0
35.8 0 0
35.9 0 0
36 0 0
36.1 0 0
36.2 0 0
36.3 0 0
36.4 0 0
36.5 0 0
36.6 0 0
36.7 0 0
36.8 0 0
36.9 0 0
37 0 0
37.1 0 0
37.2 0 0
37.3 0 0
37.4 0 0
37.5 0 0
37.6 0 0
37.7 0 0
37.8 0 0
37.9 0 0
38 0 0
38.1 0 0
38.2 0 0
38.3 0 0
38.4 0 0
38.5 0 0
38.6 0 0
38.7 0 0
38.8 0 0
38.9 0 0
39 0 0
39.1 0 0
39.2 0 0
39.3 0 0
39.4 0 0
39.5 0 0
39.6 0 0
39.7 0 0
39.8 0 0
39.9 0 0
40 0 0
40.1 0 0
40.2 0 0
40.3 0 0
40.4 0 0
40.5 0 0
40.6 0 0
40.7 0 0
40.8 0 0
40.9 0 0
41 0 0
41.1 0 0
41.2 0 0
41.3 0 0
41.4 0 0
41.5 0 0
41.6 0 0
41.7 0 0
41.8 0 0
41.9 0 0
42 0 0
42.1 0 0
42.2 0 0
42.3 0 0
42.4 0 0
42.5 0 0
42.6 0 0
42.7 0 0
42.8 0 0
42.9 0 0
43 0 0
43.1 0 0
43.2 0 0
43.3 0 0
43.4 0 0
43.5 0 0
43.6 0 0
43.7 0 0
43.8 0 0
43.9 0 0
44 0 0
44.1 0 0
44.2 0 0
44.3 0 0
44.4 0 0
44.5 0 0
44.6 0 0
44.7 0 0
44.8 0 0
44.9 0 0
45 0 0
45.1 0 0
45.2 0 0
45.3 0 0
45.4 0 0
45.5 0 0
45.6 0 0
45.7 0 0
45.8 0 0
45.9 0 0
46 0 0
46.1 0 0
46.2 0 0
46.3 0 0
46.4 0 0
46.5 0 0
46.6 0 0
46.7 0 0
46.8 0 0
46.9 0 0
47 0 0
47.1 0 0
47.2 0 0
47.3 0 0
47.4 0 0
47.5 0 0
47.6 0 0
47.7 0 0
47.8 0 0
47.9 0 0
48 0 0
48.1 0 0
48.2 0 0
48.3 0 0
48.4 0 0
48.5 0 0
48.6 0 0
48.7 0 0
48.8 0 0
48.9 0 0
49 0 0
49.1 0 0
49.2 0 0
49.3 0 0
49.4 0 0
49.5 0 0
49.6 0 0
49.7 0 0
49.8 0 0
49.9 0 0
50 0 0
50.1 0 0
50.2 0 0
50.3 0 0
50.4 0 0
50.5 0 0
50.6 0 0
50.7 0 0
50.8 0 0
50.9 0 0
51 0 0
51.1 0 0
51.2 0 0
51.3 0 0
51.4 0 0
51.5 0 0
51.6 0 0
51.7 0 0
51.8 0 0
51.9 0 0
52 0 0
52.1 0 0
52.2 0 0
52.3 0 0
52.4 0 0
52.5 0 0
52.6 0 0
52.7 0 0
52.8 0 0
52.9 0 0
53 0 0
53.1 0 0
53.2 0 0
53.3 0 0
53.4 0 0
53.5 0 0
53.6 0 0
53.7 0 0
53.8 0 0
53.9 0 0
54 0 0
54.1 0 0
54.2 0 0
54.3 0 0
54.4 0 0
54.5 0 0
54.6 0 0
54.7 0 0
54.8 0 0
54.9 0 0
55 0 0
55.1 0 0
55.2 0 0
55.3 0 0
55.4 0 0
55.5 0 0
55.6 0 0
55.7 0 0
55.8 0 0
55.9 0 0
56 0 0
56.1 0 0
56.2 0 0
56.3 0 0
56.4 0 0
56.5 0 0
56.6 0 0
56.7 0 0
56.8 0 0
56.9 0 0
57 0 0
57.1 0 0
57.2 0 0
57.3 0 0
57.4 0 0
57.5 0 0
57.6 0 0
57.7 0 0
57.8 0 0
57.9 0 0
58 0 0
58.1 0 0
58.2 0 0
58.3 0 0
58.4 0 0
58.5 0 0
58.6 0 0
58.7 0 0
58.8 0 0
58.9 0 0
59 0 0
59.1 0 0
59.2 0 0
59.3 0 0
59.4 0 0
59.5 0 0
59.6 0 0
59.7 0 0
59.8 0 0
59.9 0 0
60 0 0
60.1 0 0
60.2 0 0
60.3 0 0
60.4 0 0
60.5 0 0
60.6 0 0
60.7 0 0
60.8 0 0
60.9 0 0
61 0 0
61.1 0 0
61.2 0 0
61.3 0 0
61.4 0 0
61.5 0 0
61.6 0 0
61.7 0 0
61.8 0 0
61.9 0 0
62 0 0
62.1 0 0
62.2 0 0
62.3 0 0
62.4 0 0
62.5 0 0
62.6 0 0
62.7 0 0
62.8 0 0
62.9 0 0
63 0 0
63.1 0 0
63.2 0 0
63.3 0 0
63.4 0 0
63.5 0 0
63.6 0 0
63.7 0 0
63.8 0 0
63.9 0 0
64 0 0
64.1 0 0
64.2 0 0
64.3 0 0
64.4 0 0
64.5 0 0
64.6 0 0
64.7 0 0
64.8 0 0
64.9 0 0
65 0 0
65.1 0 0
65.2 0 0
65.3 0 0
65.4 0 0
65.5 0 0
65.6 0 0
65.7 0 0
65.8 0 0
65.9 0 0
66 0 0
66.1 0 0
66.2 0 0
66.3 0 0
66.4 0 0
66.5 0 0
66.6 0 0
66.7 0 0
66.8 0 0
66.9 0 0
67 0 0
67.1 0 0
67.2 0 0
67.3 0 0
67.4 0 0
67.5 0 0
67.6 0 0
67.7 0 0
67.8 0 0
67.9 0 0
68 0 0
68.1 0 0
68.2 0 0
68.3 0 0
68.4 0 0
68.5 0 0
68.6 0 0
68.7 0 0
68.8 0 0
68.9 0 0
69 0 0
69.1 0 0
69.2 0 0
69.3 0 0
69.4 0 0
69.5 0 0
69.6 0 0
69.7 0 0
69.8 0 0
69.9 0 0
70 0 0
70.1 0 0
70.2 0 0
70.3 0 0
70.4 0 0
70.5 0 0
70.6 0 0
70.7 0 0
70.8 0 0
70.9 0 0
71 0 0
71.1 0 0
71.2 0 0
71.3 0 0
71.4 0 0
71.5 0 0
71.6 0 0
71.7 0 0
71.8 0 0
71.9 0 0
72 0 0
72.1 0 0
72.2 0 0
72.3 0 0
72.4 0 0
72.5 0 0
72.6 0 0
72.7 0 0
72.8 0 0
72.9 0 0
73 0 0
73.1 0 0
73.2 0 0
73.3 0 0
73.4 0 0
73.5 0 0
73.6 0 0
73.7 0 0
73.8 0 0
73.9 0 0
74 0 0
74.1 0 0
74.2 0 0
74.3 0 0
74.4 0 0
74.5 0 0
74.6 0 0
74.7 0 0
74.8 0 0
74.9 0 0
75 0 0
75.1 0 0
75.2 0 0
75.3 0 0
75.4 0 0
75.5 0 0
75.6 0 0
75.7 0 0
75.8 0 0
75.9 0 0
76 0 0
76.1 0 0
76.2 0 0
76.3 0 0
76.4 0 0
76.5 0 0
76.6 0 0
76.7 0 0
76.8 0 0
76.9 0 0
77 0 0
77.1 0 0
77.2 0 0
77.3 0 0
77.4 0 0
77.5 0 0
77.6 0 0
77.7 0 0
77.8 0 0
77.9 0 0
78 0 0
78.1 0 0
78.2 0 0
78.3 0 0
78.4 0 0
78.5 0 0
78.6 0 0
78.7 0 0
78.8 0 0
78.9 0 0
79 0 0
79.1 0 0
79.2 0 0
79.3 0 0
79.4 0 0
79.5 0 0
79.6 0 0
79.7 0 0
79.8 0 0
79.9 0 0
80 0 0
80.1 0 0
80.2 0 0
80.3 0 0
80.4 0 0
80.5 0 0
80.6 0 0
80.7 0 0
80.8 0 0
80.9 0 0
81 0 0
81.1 0 0
81.2 0 0
81.3 0 0
81.4 0 0
81.5 0 0
81.6 0 0
81.7 0 0
81.8 0 0
81.9 0 0
82 0 0
82.1 0 0
82.2 0 0
82.3 0 0
82.4 0 0
82.5 0 0
82.6 0 0
82.7 0 0
82.8 0 0
82.9 0 0
83 0 0
83.1 0 0
83.2 0 0
83.3 0 0
83.4 0 0
83.5 0 0
83.6 0 0
83.7 0 0
83.8 0 0
83.9 0 0
84 0 0
84.1 0 0
84.2 0 0
84.3 0 0
84.4 0 0
84.5 0 0
84.6 0 0
84.7 0 0
84.8 0 0
84.9 0 0
85 0 0
85.1 0 0
85.2 0 0
85.3 0 0
85.4 0 0
85.5 0 0
85.6 0 0
85.7 0 0
85.8 0 0
85.9 0 0
86 0 0
86.1 0 0
86.2 0 0
86.3 0 0
86.4 0 0
86.5 0 0
86.6 0 0
86.7 0 0
86.8 0 0
86.9 0 0
87 0 0
87.1 0 0
87.2 0 0
87.3 0 0
87.4 0 0
87.5 0 0
87.6 0 0
87.7 0 0
87.8 0 0
87.9 0 0
88 0 0
88.1 0 0
88.2 0 0
88.3 0 0
88.4 0 0
88.5 0 0
88.6 0 0
88.7 0 0
88.8 0 0
88.9 0 0
89 0 0
89.1 0 0
89.2 0 0
89.3 0 0
89.4 0 0
89.5 0 0
89.6 0 0
89.7 0 0
89.8 0 0
89.9 0 0
90 0 0
90.1 0 0
90.2 0 0
90.3 0 0
90.4 0 0
90.5 0 0
90.6 0 0
90.7 0 0
90.8 0 0
90.9 0 0
91 0 0
91.1 0 0
91.2 0 0
91.3 0 0
91.4 0 0
91.5 0 0
91.6 0 0
91.7 0 0
91.8 0 0
91.9 0 0
92 0 0
92.1 0 0
92.2 0 0
92.3 0 0
92.4 0 0
92.5 0 0
92.6 0 0
92.7 0 0
92.8 0 0
92.9 0 0
93 0 0
93.1 0 0
93.2 0 0
93.3 0 0
93.4 0 0
93.5 0 0
93.6 0 0
93.7 0 0
93.8 0 0
93.9 0 0
94 0 0
94.1 0 0
94.2 0 0
94.3 0 0
94.4 0 0
94.5 0 0
94.6 0 0
94.7 0 0
94.8 0 0
94.9 0 0
95 0 0
95.1 0 0
95.2 0 0
95.3 0 0
95.4 0 0
95.5 0 0
95.6 0 0
95.7 0 0
95.8 0 0
95.9 0 0
96 0 0
96.1 0 0
96.2 0 0
96.3 0 0
96.4 0 0
96.5 0 0
96.6 0 0
96.7 0 0
96.8 0 0
96.9 0 0
97 0 0
97.1 0 0
97.2 0 0
97.3 0 0
97.4 0 0
97.5 0 0
97.6 0 0
97.7 0 0
97.8 0 0
97.9 0 0
98 0 0
98.1 0 0
98.2 0 0
98.3 0 0
98.4 0 0
98.5 0 0
98.6 0 0
98.7 0 0
98.8 0 0
98.9 0 0
99 0 0
99.1 0 0
99.2 0 0
99.3 0 0
99.4 0 0
99.5 0 0
99.6 0 0
99.7 0 0
99.8 0 0
99.9 0 0
100 0 0
100.1 0 0
100.2 0 0
100.3 0 0
100.4 0 0
100.5 0 0
100.6 0 0
100.7 0 0
100.8 0 0
100.9 0 0
101 0 0
101.1 0 0
101.2 0 0
101.3 0 0
101.4 0 0
101.5 0 0
101.6 0 0
101.7 0 0
101.8 0 0
101.9 0 0
102 0 0
102.1 0 0
102.2 0 0
102.3 0 0
102.4 0 0
102.5 0 0
102.6 0 0
102.7 0 0
102.8 0 0
102.9 0 0
103 0 0
103.1 0 0
103.2 0 0
103.3 0 0
103.4 0 0
103.5 0 0
103.6 0 0
103.7 0 0
103.8 0 0
103.9 0 0
104 0 0
104.1 0 0
104.2 0 0
104.3 0 0
104.4 0 0
104.5 0 0
104.6 0 0
104.7 0 0
104.8 0 0
104.9 0 0
105 0 0
105.1 0 0
105.2 0 0
105.3 0 0
105.4 0 0
105.5 0 0
105.6 0 0
105.7 0 0
105.8 0 0
105.9 0 0
106 0 0
106.1 0 0
106.2 0 0
106.3 0 0
106.4 0 0
106.5 0 0
106.6 0 0
106.7 0 0
106.8 0 0
106.9 0 0
107 0 0
107.1 0 0
107.2 0 0
107.3 0 0
107.4 0 0
107.5 0 0
107.6 0 0
107.7 0 0
107.8 0 0
107.9 0 0
108 0 0
108.1 0 0
108.2 0 0
108.3 0 0
108.4 0 0
108.5 0 0
108.6 0 0
108.7 0 0
108.8 0 0
108.9 0 0
109 0 0
109.1 0 0
109.2 0 0
109.3 0 0
109.4 0 0
109.5 0 0
109.6 0 0
109.7 0 0
109.8 0 0
109.9 0 0
110 0 0
110.1 0 0
110.2 0 0
110.3 0 0
110.4 0 0
110.5 0 0
110.6 0 0
110.7 0 0
110.8 0 0
110.9 0 0
111 0 0
111.1 0 0
111.2 0 0
111.3 0 0
111.4 0 0
111.5 0 0
111.6 0 0
111.7 0 0
111.8 0 0
111.9 0 0
112 0 0
[...]
POINT_DATA 83304

SCALARS pressure float 1
LOOKUP_TABLE default
0
0
0
0
0
0
0
0
0
0
0
0
0
0
0
0
0
0
0
0
0
0
0
0
0
0
0
0
0
0
0
0
0
0
0
0
0
0
0
0
0
0
0
0
0
0
0
0
0
0
0
0
0
0
0
0
0
0
0
0
0
0
0
0
0
0
0
0
0
0
0
0
0
0
0
0
0
0
0
0
0
0
0
0
0
0
0
0
0
0
0
0
0
0
0
0
0
0
0
0
0
0
0
0
0
0
0
0
0
0
0
0
0
0
0
0
0
0
0
0
0
0
0
0
0
0
0
0
0
0
0
0
0
0
0
0
0
0
0
0
0
0
0
0
0
0
0
0
0
0
0
0
0
0
0
0
0
0
0
0
0
0
0
0
0
0
0
0
0
0
0
0
0
0
0
0
0
0
0
0
0
0
0
0
0
0
0
0
0
0
0
0
0
0
0
0
0
0
0
0
0
0
0
0
0
0
0
0
0
0
0
0
0
0
0
0
0
0
0
0
0
0
0
0
0
0
0
0
0
0
0
0
0
0
0
0
0
0
0
0
0
0
0
0
0
0
0
0
0
0
0
0
0
0
0
0
0
0
0
0
0
0
0
0
0
0
0
0
0
0
0
0
0
0
0
0
0
0
0
0
0
0
0
0
0
0
0
0
0
0
0
0
0
0
0
0
0
0
0
0
0
0
0
0
0
0
0
0
0
0
0
0
0
0
0
0
0
0
0
0
0
0
0
0
0
0
0
0
0
0
0
0
0
0
0
0
0
0
0
0
0
0
0
0
0
0
0
0
0
0
0
0
0
0
0
0
0
0
0
0
0
0
0
0
0
0
0
0
0
0
0
0
0
0
0
0
0
0
0
0
0
0
0
0
0
0
0
0
0
0
0
0
0
0
0
0
0
0
0
0
0
0
0
0
0
0
0
0
0
0
0
0
0
0
0
0
0
0
0
0
0
0
0
0
0
0
0
0
0
0
0
0
0
0
0
0
0
0
0
0
0
0
0
0
0
0
0
0
0
0
0
0
0
0
0
0
0
0
0
0
0
0
0
0
0
0
0
0
0
0
0
0
0
0
0
0
0
0
0
0
0
0
0
0
0
0
0
0
0
0
0
0
0
0
0
0
0
0
0
0
0
0
0
0
0
0
0
0
0
0
0
0
0
0
0
0
0
0
0
0
0
0
0
0
0
0
0
0
0
0
0
0
0
0
0
0
0
0
0
0
0
0
0
0
0
0
0
0
0
0
0
0
0
0
0
0
0
0
0
0
0
0
0
0
0
0
0
0
0
0
0
0
0
0
0
0
0
0
0
0
0
0
0
0
0
0
0
0
0
0
0
0
0
0
0
0
0
0
0
0
0
0
0
0
0
0
0
0
0
0
0
0
0
0
0
0
0
0
0
0
0
0
0
0
0
0
0
0
0
0
0
0
0
0
0
0
0
0
0
0
0
0
0
0
0
0
0
0
0
0
0
0
0
0
0
0
0
0
0
0
0
0
0
0
0
0
0
0
0
0
0
0
0
0
0
0
0
0
0
0
0
0
0
0
0
0
0
0
0
0
0
0
0
0
0
0
0
0
0
0
0
0
0
0
0
0
0
0
0
0
0
0
0
0
0
0
0
0
0
0
0
0
0
0
0
0
0
0
0
0
0
0
0
0
0
0
0
0
0
0
0
0
0
0
0
0
0
0
0
0
0
0
0
0
0
0
0
0
0
0
0
0
0
0
0
0
0
0
0
0
0
0
0
0
0
0
0
0
0
0
0
0
0
0
0
0
0
0
0
0
0
0
0
0
0
0
0
0
0
0
0
0
0
0
0
0
0
0
0
0
0
0
0
0
0
0
0
0
0
0
0
0
0
0
0
0
0
0
0
0
0
0
0
0
0
0
0
0
0
0
0
0
0
0
0
0
0
0
0
0
0
0
0
0
0
0
0
0
0
0
0
0
0
0
0
0
0
0
0
0
0
0
0
0
0
0
0
0
0
0
0
0
0
0
0
0
0
0
0
0
0
0
0
0
0
0
0
0
0
0
0
0
0
0
0
0
0
0
0
0
0
0
0
0
0
0
0
0
0
0
0
0
0
0
0
0
0
0
0
0
0
0
0
0
0
0
0
0
0
0
0
0
0
0
0
0
0
0
0
0
0
0
0
0
0
0
0
0
0
0
0
0
0
0
0
0
0
0
0
0
0
0
0
0
0
0
0
0
0
0
0
0
0
0
0
0
0
0
0
0
0
0
0
0
0
0
0
0
0
0
0
0
0
0
0
0
0
0
0
0
0
0
0
0
0
0
0
0
0
0
0
0
0
0
0
0
0
0
0
0
0
0
0
0
0
0
0
0
0
0
0
0
0
0
0
0
0
0
0
0
0
0
0
0
0
0
0
0
0
0
0
0
0
0
0
0
0
0
0
0
0
0
0
0
0
0
0
0
0
0
0
0
0
0
0
0
0
0
0
0
0
0
0
0
0
0
0
0
0
0
0
0
0
0
0
0
0
0
0
0
0
0
0
0
0
0
0
0
0
0
0
0
0
0
0
0
0
0
0
0
0
0
0
0
0
0
0
0
0
0
0
0
0
0
0
0
0
0
0
0
0
0
0
0
0
0
0
0
0
0
0
0
0
0
0
0
0
0
0
0
0
0
0
0
0
0
0
0
0
0
0
0
0
0
0
0
0
0
0
0
0
0
0
0
0
0
0
0
0
0
0
0
0
0
0
0
0
0
0
0
0
0
0
0
0
0
0
0
0
0
0
0
0
0
0
0
0
0
0
0
0
0
0
0
0
0
0
0
0
0
0
0
0
0
0
0
0
0
0
0
0
0
0
0
0
0
0
0
0
0
0
0
0
0
0
0
0
0
0
0
0
0
0
0
0
0
0
0
0
0
0
0
0
0
0
0
0
0
0
0
0
0
0
0
0
0
0
0
0
0
0
0
0
0
0
0
0
0
0
0
0
0
0
0
0
0
0
0
0
0
0
0
0
0
0
0
0
0
0
0
0
0
0
0
0
0
0
0
0
0
0
0
0
0
0
0
0
0
0
0
0
0
0
0
0
0
0
0
0
0
0
0
0
0
0
0
0
0
0
0
0
0
0
0
0
0
0
0
0
0
0
0
0
0
0
0
0
0
0
0
0
0
0
0
0
0
0
0
0
0
0
0
0
0
0
0
0
0
0
0
0
0
0
0
0
0
0
0
0
0
0
0
0
0
0
0
0
0
0
0
0
0
0
0
0
0
0
0
0
0
0
0
0
0
0
0
0
0
0
0
0
0
0
0
0
0
0
0
0
0
0
0
0
0
0
0
0
0
0
0
0
0
0
0
0
0
0
0
0
0
0
0
0
0
0
0
0
0
0
0
0
0
0
0
0
0
0
0
0
0
0
0
0
0
0
0
0
0
0
0
0
0
0
0
0
0
0
0
0
0
0
0
0
0
0
0
0
0
0
0
0
0
0
0
0
0
0
0
0
0
0
0
0
0
0
0
0
0
0
0
0
0
0
0
0
0
0
0
0
0
0
0
0
0
0
0
0
0
0
0
0
0
0
0
0
0
0
0
0
0
0
0
0
0
0
0
0
0
0
0
0
0
0
0
0
0
0
0
0
0
0
0
0
0.0863695
0.0645286
0.066491
0.0675726
0.074687
0.0877375
0.101718
0.115832
0.130801
0.143612
0.155547
0.167956
0.174929
0.176429
0.178472
0.177681
0.169782
0.16052
0.152377
0.13902
0.119683
0.103362
0.0945513
0.0857005
0.0672855
0.0408394
0.0168697
0.00333425
0.00104003
0.00631656
0.0143987
0.0212637
0.024502
0.0236555
0.0198528
0.0148458
0.0100831
0.00631606
0.0036933
0.00203499
0.00106416
0.000531068
0.000254022
0.000116863
5.18554e-05
2.22462e-05
9.24566e-06
3.72904e-06
1.46182e-06
5.57708e-07
2.07328e-07
7.51801e-08
2.66169e-08
9.20862e-09
3.11566e-09
1.03165e-09
3.34516e-10
1.06283e-10
3.31056e-11
1.01146e-11
3.03252e-12
8.92588e-13
2.58024e-13
7.32811e-14
2.04547e-14
5.61313e-15
1.51481e-15
4.02137e-16
1.05044e-16
2.7006e-17
6.83513e-18
1.70345e-18
4.18126e-19
1.01104e-19
2.40881e-20
5.65583e-21
1.30897e-21
2.98662e-22
6.71935e-23
1.49088e-23
3.26286e-24
7.04474e-25
1.50075e-25
3.15497e-26
6.5462e-27
1.34076e-27
2.7111e-28
5.41288e-29
1.06723e-29
2.07822e-30
3.99745e-31
7.59603e-32
1.42612e-32
2.6457e-33
4.85056e-34
8.7894e-35
1.57431e-35
2.78761e-36
4.88013e-37
8.4476e-38
1.44604e-38
2.44804e-39
4.09911e-40
6.78944e-41
1.11248e-41
1.80346e-42
2.89276e-43
4.59147e-44
7.21207e-45
1.12118e-45
1.72517e-46
2.62766e-47
3.96203e-48
5.91445e-49
8.7416e-50
1.27933e-50
1.85403e-51
2.66091e-52
3.78227e-53
5.32492e-54
7.42579e-55
1.02582e-55
1.40387e-56
1.90343e-57
2.55699e-58
3.40356e-59
4.48927e-60
5.86788e-61
7.6011e-62
9.75858e-63
1.24176e-63
1.56622e-64
1.9582e-65
2.42702e-66
2.98213e-67
3.63277e-68
4.38763e-69
5.25444e-70
6.23948e-71
7.34712e-72
8.57932e-73
9.93523e-74
1.14107e-74
1.29979e-75
1.46854e-76
1.64575e-77
1.82948e-78
2.01744e-79
2.20697e-80
2.39515e-81
2.57888e-82
2.7549e-83
2.91996e-84
3.07085e-85
3.20456e-86
3.31836e-87
3.40989e-88
3.47724e-89
3.51901e-90
3.5344e-91
3.52317e-92
3.48569e-93
3.42293e-94
3.33638e-95
3.228e-96
3.10018e-97
2.95563e-98
2.79728e-99
2.6282e-100
2.4515e-101
2.27021e-102
2.08725e-103
1.90534e-104
1.72691e-105
1.5541e-106
1.38872e-107
1.23221e-108
1.08568e-109
9.49897e-111
8.25321e-112
7.12115e-113
6.10196e-114
5.19267e-115
4.3886e-116
3.6837e-117
3.07098e-118
2.5428e-119
2.09123e-120
1.70827e-121
1.38606e-122
1.11709e-123
8.94311e-125
7.11195e-126
5.61821e-127
4.40886e-128
3.43701e-129
2.66177e-130
2.04788e-131
1.56528e-132
1.1886e-133
8.96708e-135
6.72111e-136
5.00512e-137
3.70322e-138
2.72234e-139
1.98844e-140
1.44309e-141
1.04063e-142
7.45632e-144
5.30868e-145
3.75569e-146
2.64022e-147
1.84435e-148
1.28028e-149
8.83149e-151
6.05388e-152
4.12394e-153
2.79173e-154
1.87813e-155
1.25566e-156
8.34292e-158
5.50897e-159
3.61521e-160
2.35784e-161
1.52832e-162
9.84561e-164
6.30379e-165
4.0114e-166
2.53706e-167
1.59482e-168
9.96418e-170
6.18764e-171
3.81915e-172
2.34299e-173
1.4287e-174
8.65926e-176
5.21669e-177
3.12382e-178
1.85934e-179
1.10006e-180
6.46939e-182
3.78182e-183
2.19752e-184
1.2693e-185
7.28778e-187
4.1594e-188
2.35979e-189
1.33084e-190
7.46085e-192
4.15783e-193
2.30336e-194
1.26846e-195
6.94409e-197
3.779e-198
2.04439e-199
1.09946e-200
5.87796e-202
3.12395e-203
1.6505e-204
8.66889e-206
4.52634e-207
2.34947e-208
1.21236e-209
6.21921e-211
3.17162e-212
1.60794e-213
8.10406e-215
4.06052e-216
2.02258e-217
1.00156e-218
4.93056e-220
2.41303e-221
1.17403e-222
5.67862e-224
2.73059e-225
1.30533e-226
6.20342e-228
2.93084e-229
1.37659e-230
6.42783e-232
2.98383e-233
1.37699e-234
6.31739e-236
2.88132e-237
1.30645e-238
5.88896e-240
2.63895e-241
1.17562e-242
5.20653e-244
2.2923e-245
1.00331e-246
4.36556e-248
1.88835e-249
8.12012e-251
3.47118e-252
1.47512e-253
6.23172e-255
2.6171e-256
1.0926e-257
4.53446e-259
1.87075e-260
7.67233e-262
3.12794e-263
1.26767e-264
5.10705e-266
2.04524e-267
8.14194e-269
3.22194e-270
1.26739e-271
4.95568e-273
1.92616e-274
7.44178e-276
2.85792e-277
1.09097e-278
4.13956e-280
1.56127e-281
5.85297e-283
2.18096e-284
8.07765e-286
2.97363e-287
1.08805e-288
3.95698e-290
1.43031e-291
5.13856e-293
1.83482e-294
6.51152e-296
2.29669e-297
8.05098e-299
2.80489e-300
9.71176e-302
3.34188e-303
1.14285e-304
3.88404e-306
1.31181e-307
4.40299e-309
1.4686e-310
4.86783e-312
1.60338e-313
5.24803e-315
1.70692e-316
5.51668e-318
1.77167e-319
5.65705e-321
1.77864e-322
4.94066e-324
0
0
0
0
0
0
0
0
0
0
0
0
0
0
0
0
0
0
0
0
0
0
0
0
0
0
0
0
0
0
0
0
0
0
0
0
0
0
0
0
0
0
0
0
0
0
0
0
0
0
0
0
0
0
0
0
0
0
0
0
0
0
0
0
0
0
0
0
0
0
0
0
0
0
0
0
0
0
0
0
0
0
0
0
0
0
0
0
0
0
0
0
0
0
0
0
0
0
0
0
0
0
0
0
0
0
0
0
0
0
0
0
0
0
0
0
0
0
0
0
0
0
0
0
0
0
0
0
0
0
0
0
0
0
0
0
0
0
0
0
0
0
0
0
0
0
0
0
0
0
0
0
0
0
0
0
0
0
0
0
0
0
0
0
0
0
0
0
0
0
0
0
0
0
0
0
0
0
0
0
0
0
0
0
0
0
0
0
0
0
0
0
0
0
0
0
0
0
0
0
0
0
0
0
0
0
0
0
0
0
0
0
0
0
0
0
0
0
0
0
0
0
0
0
0
0
0
0
0
0
0
0
0
0
0
0
0
0
0
0
0
0
0
0
0
0
0
0
0
0
0
0
0
0
0
0
0
0
0
0
0
0
0
0
0
0
0
0
0
0
0
0
0
0
0
0
0
0
0
0
0
0
0
0
0
0
0
0
0
0
0
0
0
0
0
0
0
0
0
0
0
0
0
0
0
0
0
0
0
0
0
0
0
0
0
0
0
0
0
0
0
0
0
0
0
0
0
0
0
0
0
0
0
0
0
0
0
0
0
0
0
0
0
0
0
0
0
0
0
0
0
0
0
0
0
0
0
0
0
0
0
0
0
0
0
0
0
0
0
0
0
0
0
0
0
0
0
0
0
0
0
0
0
0
0
0
0
0
0
0
0
0
0
0
0
0
0
0
0
0
0
0
0
0
0
0
0
0
0
0
0
0
0
0
0
0
0
0
0
0
0
0
0
0
0
0
0
0
0
0
0
0
0
0
0
0
0
0
0
0
0
0
0
0
0
0
0
0
0
0
0
0
0
0
0
0
0
0
0
0
0
0
0
0
0
0
0
0
0
0
0
0
0
0
0
0
0
0
0
0
0
0
0
0
0
0
0
0
0
0
0
0
0
0
0
0
0
0
0
0
0
0
0
0
0
0
0
0
0
0
0
0
0
0
0
0
0
0
0
0
0
0
0
0
0
0
0
0
0
0
0
0
0
0
0
0
0
0
0
0
0
0
0
0
0
0
0
0
0
0
0
0
0
0
0
0
0
0
0
0
0
0
0
0
0
0
0
0
0
0
0
0
0
0
0
0
0
0
0
0
0
0
0
0
0
0
0
0
0
0
0
0
0
0
0
0
0
0
0
0
0
0
0
0
0
0
0
0
0
0
0
0
0
0
0
0
0
0
0
0
0
0
0
0
0
0
0
0
0
0
0
0
0
0
0
0
0
0
0
0
0
0
0
0
0
0
0
0
0
0
0
0
0
0
0
0
0
0
0
0
0
0
0
0
0
0
0
0
0
0
0
0
0
0
0
0
0
0
0
0
0
0
0
0
0
0
0
0
0
0
0
0
0
0
0
0
0
0
0
0
0
0
0
0
0
0
0
0
0
0
0
0
0
0
0
0
0
0
0
0
0
0
0
0
0
0
0
0
0
0
0
0
0
0
0
0
0
0
0
0
0
0
0
0
0
0
0
0
0
0
0
0
0
0
0
0
0
0
0
0
0
0
0
0
0
0
0
0
0
0
0
0
0
0
0
0
0
0
0
0
0
0
0
0
0
0
0
0
0
0
0
0
0
0
0
0
0
0
0
0
0
0
0
0
0
0
0
0
0
0
0
0
0
0
0
0
0
0
0
0
0
0
0
0
0
0
0
0
0
0
0
0
0
0
0
0
0
0
0
0
0
0
0
0
0
0
0
0
0
0
0
0
0
0
0
0
0
0
0
0
0
0
0
0
0
0
0
0
0
0
0
0
0
0
0
0
0
0
0
0
0
0
0
0
0
0
0
0
0
0
0
0
0
0
0
0
0
0
0
0
0
0
0
0
0
0
0
0
0
0
0
0
0
0
0
0
0
0
0
0
0
0
0
0
0
0
0
0
0
0
0
0
0
0
0
0
0
0
0
0
0
0
0
0
0
0
0
0
0
0
0
0
0
0
0
0
0
0
0
0
0
0
0
0
0
0
0
0
0
0
0
0
0
0
0
0
0
0
0
0
0
0
0
0
0
0
0
0
0
0
0
0
0
0
0
0
0
0
0
0
0
0
0
0
0
0
0
0
0
0
0
0
0
0
0
0
0
0
0
0
0
0
0
0
0
0
0
0
0
0
0
0
0
0
0
0
0
0
0
0
0
0
0
0
0
0
0
0
0
0
0
0
0
0
0
0
0
0
0
0
0
0
0
0
0
0
0
0
0
0
0
0
0
0
0
0
0
0
0
0
0
0
0
0
0
0
0
0
0
0
0
0
0
0
0
0
0
0
0
0
0
0
0
0
0
0
0
0
0
0
0
0
0
0
0
0
0
0
0
0
0
0
0
0
0
0
0
0
0
0
0
0
0
0
0
0
0
0
0
0
0
0
0
0
0
0
0
0
0
0
0
0
0
0
0
0
0
0
0
0
0
0
0
0
0
0
0
0
0
0
0
0
0
0
0
0
0
0
0
0
0
0
0
0
0
0
0
0
0
0
0
0
0
0
0
0
0
0
0
0
0
0
0
0
0
0
0
0
0
0
0
0
0
0
0
0
0
0
0
0
0
0
0
0
0
0
0
0
0
0
0
0
0
0
0
0
0
0
0
0
0
0
0
0
0
0
0
0
0
0
0
0
0
0
0
0
0
0.0745513
0.0451888
0.0495647
0.0511439
0.0560378
0.0652664
0.0750057
0.0836638
0.0925059
0.0992597
0.104936
0.111828
0.115357
0.114712
0.115316
0.115381
0.110101
0.10342
0.100061
0.0950568
0.0833789
0.0713236
0.067135
0.0671974
0.0598356
0.0410166
0.0188354
0.00292626
-0.00320976
-0.001281
0.00503245
0.0120193
0.0168706
0.0182943
0.0166201
0.0131712
0.00934991
0.00606304
0.00364534
0.00205517
0.00109576
0.000556095
0.000269961
0.000125854
5.65219e-05
2.45173e-05
1.0294e-05
4.1914e-06
1.6577e-06
6.37731e-07
2.38946e-07
8.72922e-08
3.11243e-08
1.08408e-08
3.69155e-09
1.22989e-09
4.0116e-10
1.28184e-10
4.01469e-11
1.2331e-11
3.71599e-12
1.09919e-12
3.19279e-13
9.11019e-14
2.55445e-14
7.04085e-15
1.90828e-15
5.08719e-16
1.33429e-16
3.44405e-17
8.75077e-18
2.18918e-18
5.39355e-19
1.30893e-19
3.12968e-20
7.3741e-21
1.71248e-21
3.92042e-22
8.84924e-23
1.96979e-23
4.32462e-24
9.36613e-25
2.00136e-25
4.21997e-26
8.78166e-27
1.80381e-27
3.65775e-28
7.32325e-29
1.44784e-29
2.82697e-30
5.45204e-31
1.0387e-31
1.9551e-32
3.63619e-33
6.683e-34
1.21394e-34
2.17955e-35
3.86842e-36
6.78799e-37
1.1777e-37
2.02051e-38
3.42817e-39
5.75284e-40
9.54907e-41
1.56798e-41
2.5472e-42
4.09416e-43
6.51157e-44
1.02486e-44
1.59639e-45
2.46117e-46
3.75589e-47
5.67395e-48
8.48582e-49
1.25653e-49
1.84227e-50
2.67467e-51
3.84552e-52
5.47567e-53
7.72235e-54
1.07875e-54
1.49273e-55
2.04626e-56
2.77898e-57
3.73926e-58
4.98525e-59
6.58594e-60
8.62194e-61
1.1186e-61
1.4383e-62
1.83298e-63
2.31538e-64
2.89915e-65
3.59851e-66
4.42796e-67
5.40179e-68
6.53349e-69
7.8352e-70
9.31695e-71
1.0986e-71
1.28459e-72
1.4896e-73
1.7131e-74
1.95396e-75
2.2105e-76
2.48044e-77
2.76089e-78
3.04838e-79
3.33893e-80
3.62813e-81
3.91123e-82
4.18327e-83
4.43924e-84
4.67421e-85
4.8835e-86
5.06285e-87
5.20853e-88
5.3175e-89
5.38751e-90
5.41717e-91
5.406e-92
5.35443e-93
5.26381e-94
5.13629e-95
4.97481e-96
4.78294e-97
4.56478e-98
4.32477e-99
4.06761e-100
3.79805e-101
3.5208e-102
3.24036e-103
2.96094e-104
2.68635e-105
2.41994e-106
2.16455e-107
1.92248e-108
1.69551e-109
1.4849e-110
1.29139e-111
1.11532e-112
9.56594e-114
8.1481e-115
6.89279e-116
5.79101e-117
4.8322e-118
4.00476e-119
3.29654e-120
2.69526e-121
2.18884e-122
1.76566e-123
1.41478e-124
1.12608e-125
8.90337e-127
6.99289e-128
5.45612e-129
4.22906e-130
3.25646e-131
2.49113e-132
1.89324e-133
1.42949e-134
1.07233e-135
7.99207e-137
5.91804e-138
4.35405e-139
3.18282e-140
2.31176e-141
1.66836e-142
1.19637e-143
8.5245e-145
6.03549e-146
4.2462e-147
2.96853e-148
2.06224e-149
1.42364e-150
9.76635e-152
6.65795e-153
4.51056e-154
3.03674e-155
2.03179e-156
1.35098e-157
8.92737e-159
5.86283e-160
3.82654e-161
2.48213e-162
1.60018e-163
1.02528e-164
6.52904e-166
4.13234e-167
2.59948e-168
1.62527e-169
1.00999e-170
6.23828e-172
3.82978e-173
2.33694e-174
1.41739e-175
8.54488e-177
5.12033e-178
3.04979e-179
1.80562e-180
1.0626e-181
6.21589e-183
3.61435e-184
2.08908e-185
1.20027e-186
6.85497e-188
3.89169e-189
2.19624e-190
1.23206e-191
6.87067e-193
3.80874e-194
2.09886e-195
1.14976e-196
6.26112e-198
3.3894e-199
1.82399e-200
9.75776e-202
5.18931e-203
2.74348e-204
1.44188e-205
7.53341e-207
3.91284e-208
2.02038e-209
1.03708e-210
5.29217e-212
2.68472e-213
1.35396e-214
6.78828e-216
3.38344e-217
1.6765e-218
8.25837e-220
4.04421e-221
1.96889e-222
9.52919e-224
4.58501e-225
2.19317e-226
1.04293e-227
4.93044e-229
2.31721e-230
1.08267e-231
5.02889e-233
2.32219e-234
1.06603e-235
4.8651e-237
2.20729e-238
9.9557e-240
4.46406e-241
1.98991e-242
8.81817e-244
3.88478e-245
1.70136e-246
7.40737e-248
3.20605e-249
1.37948e-250
5.90057e-252
2.50904e-253
1.0606e-254
4.45683e-256
1.86178e-257
7.7314e-259
3.19162e-260
1.30974e-261
5.34294e-263
2.16666e-264
8.73406e-266
3.49988e-267
1.39412e-268
5.52015e-270
2.17273e-271
8.50083e-273
3.30608e-274
1.27808e-275
4.91129e-277
1.87594e-278
7.12237e-280
2.68788e-281
1.00826e-282
3.75928e-284
1.39317e-285
5.1318e-287
1.87885e-288
6.8371e-290
2.47287e-291
8.88947e-293
3.17609e-294
1.12783e-295
3.98042e-297
1.39617e-298
4.86709e-300
1.68623e-301
5.80596e-303
1.98672e-304
6.75611e-306
2.28324e-307
7.66817e-309
2.55926e-310
8.48813e-312
2.79755e-313
9.16233e-315
2.98187e-316
9.6432e-318
3.09878e-319
9.89613e-321
3.16202e-322
9.88131e-324
0
0
0
0
0
0
0
0
0
0
0
0
0
0
0
0
0
0
0
0
0
0
0
0
0
0
0
0
0
0
0
0
0
0
0
0
0
0
0
0
0
0
0
0
0
0
0
0
0
0
0
0
0
0
0
0
0
0
0
0
0
0
0
0
0
0
0
0
0
0
0
0
0
0
0
0
0
0
0
0
0
0
0
0
0
0
0
0
0
0
0
0
0
0
0
0
0
0
0
0
0
0
0
0
0
0
0
0
0
0
0
0
0
0
0
0
0
0
0
0
0
0
0
0
0
0
0
0
0
0
0
0
0
0
0
0
0
0
0
0
0
0
0
0
0
0
0
0
0
0
0
0
0
0
0
0
0
0
0
0
0
0
0
0
0
0
0
0
0
0
0
0
0
0
0
0
0
0
0
0
0
0
0
0
0
0
0
0
0
0
0
0
0
0
0
0
0
0
0
0
0
0
0
0
0
0
0
0
0
0
0
0
0
0
0
0
0
0
0
0
0
0
0
0
0
0
0
0
0
0
0
0
0
0
0
0
0
0
0
0
0
0
0
0
0
0
0
0
0
0
0
0
0
0
0
0
0
0
0
0
0
0
0
0
0
0
0
0
0
0
0
0
0
0
0
0
0
0
0
0
0
0
0
0
0
0
0
0
0
0
0
0
0
0
0
0
0
0
0
0
0
0
0
0
0
0
0
0
0
0
0
0
0
0
0
0
0
0
0
0
0
0
0
0
0
0
0
0
0
0
0
0
0
0
0
0
0
0
0
0
0
0
0
0
0
0
0
0
0
0
0
0
0
0
0
0
0
0
0
0
0
0
0
0
0
0
0
0
0
0
0
0
0
0
0
0
0
0
0
0
0
0
0
0
0
0
0
0
0
0
0
0
0
0
0
0
0
0
0
0
0
0
0
0
0
0
0
0
0
0
0
0
0
0
0
0
0
0
0
0
0
0
0
0
0
0
0
0
0
0
0
0
0
0
0
0
0
0
0
0
0
0
0
0
0
0
0
0
0
0
0
0
0
0
0
0
0
0
0
0
0
0
0
0
0
0
0
0
0
0
0
0
0
0
0
0
0
0
0
0
0
0
0
0
0
0
0
0
0
0
0
0
0
0
0
0
0
0
0
0
0
0
0
0
0
0
0
0
0
0
0
0
0
0
0
0
0
0
0
0
0
0
0
0
0
0
0
0
0
0
0
0
0
0
0
0
0
0
0
0
0
0
0
0
0
0
0
0
0
0
0
0
0
0
0
0
0
0
0
0
0
0
0
0
0
0
0
0
0
0
0
0
0
0
0
0
0
0
0
0
0
0
0
0
0
0
0
0
0
0
0
0
0
0
0
0
0
0
0
0
0
0
0
0
0
0
0
0
0
0
0
0
0
0
0
0
0
0
0
0
0
0
0
0
0
0
0
0
0
0
0
0
0
0
0
0
0
0
0
0
0
0
0
0
0
0
0
0
0
0
0
0
0
0
0
0
0
0
0
0
0
0
0
0
0
0
0
0
0
0
0
0
0
0
0
0
0
0
0
0
0
0
0
0
0
0
0
0
0
0
0
0
0
0
0
0
0
0
0
0
0
0
0
0
0
0
0
0
0
0
0
0
0
0
0
0
0
0
0
0
0
0
0
0
0
0
0
0
0
0
0
0
0
0
0
0
0
0
0
0
0
0
0
0
0
0
0
0
0
0
0
0
0
0
0
0
0
0
0
0
0
0
0
0
0
0
0
0
0
0
0
0
0
0
0
0
0
0
0
0
0
0
0
0
0
0
0
0
0
0
0
0
0
0
0
0
0
0
0
0
0
0
0
0
0
0
0
0
0
0
0
0
0
0
0
0
0
0
0
0
0
0
0
0
0
0
0
0
0
0
0
0
0
0
0
0
0
0
0
0
0
0
0
0
0
0
0
0
0
0
0
0
0
0
0
0
0
0
0
0
0
0
0
0
0
0
0
0
0
0
0
0
0
0
0
0
0
0
0
0
0
0
0
0
0
0
0
0
0
0
0
0
0
0
0
0
0
0
0
0
0
0
0
0
0
0
0
0
0
0
0
0
0
0
0
0
0
0
0
0
0
0
0
0
0
0
0
0
0
0
0
0
0
0
0
0
0
0
0
0
0
0
0
0
0
0
0
0
0
0
0
0
0
0
0
0
0
0
0
0
0
0
0
0
0
0
0
0
0
0
0
0
0
0
0
0
0
0
0
0
0
0
0
0
0
0
0
0
0
0
0
0
0
0
0
0
0
0
0
0
0
0
0
0
0
0
0
0
0
0
0
0
0
0
0
0
0
0
0
0
0
0
0
0
0
0
0
0
0
0
0
0
0
0
0
0
0
0
0
0
0
0
0
0
0
0
0
0
0
0
0
0
0
0
0
0
0
0
0
0
0
0
0
0
0
0
0
0
0
0
0
0
0
0
0
0
0
0
0
0
0
0
0
0
0
0
0
0
0
0
0
0
0
0
0
0
0
0
0
0
0
0
0
0
0
0
0
0
0
0
0
0
0
0
0
0
0
0
0
0
0
0
0
0
0
0
0
0
0
0
0
0
0
0
0
0
0
0
0
0
0
0
0
0
0
0
0
0
0
0
0
0
0
0
0
0
0
0
0
0
0
0
0
0
0
0
0
0
0
0
0
0
0
0
0
0
0
0
0
0
0
0
0
0
0
0
0
0
0
0
0
0
0
0
0
0
0
0
0
0
0
0
0
0
0
0
0
0
0
0
0
0
0
0
0
0
0
0
0
0
0
0
0
0
0
0
0
0
0
0
0
0
0
0
0
0
0
0
0
0
0
0
0
0
0
0
0
0
0
0
0
0
0
0
0
0
0
0.080076
0.0505685
0.0572751
0.0584631
0.063382
0.0743203
0.0864717
0.0978564
0.110248
0.120225
0.129113
0.139997
0.145944
0.145569
0.146796
0.147011
0.13931
0.129651
0.124534
0.116885
0.100425
0.0838965
0.0781698
0.0788273
0.0712376
0.0499303
0.0236674
0.00357859
-0.00551235
-0.00468647
0.00221672
0.0107578
0.0172515
0.0197999
0.0185633
0.0150167
0.010822
0.00710209
0.00431264
0.00245201
0.00131694
0.000672639
0.000328396
0.000153874
6.94226e-05
3.02386e-05
1.27446e-05
5.20749e-06
2.06628e-06
7.9733e-07
2.99595e-07
1.09742e-07
3.92275e-08
1.36958e-08
4.67436e-09
1.56069e-09
5.10114e-10
1.6332e-10
5.12487e-11
1.57696e-11
4.76057e-12
1.41056e-12
4.10391e-13
1.17285e-13
3.29364e-14
9.09176e-15
2.46769e-15
6.58769e-16
1.73019e-16
4.47188e-17
1.1377e-17
2.84976e-18
7.02964e-19
1.70803e-19
4.08868e-20
9.64466e-21
2.24227e-21
5.13886e-22
1.16119e-22
2.58742e-23
5.68641e-24
1.23277e-24
2.63677e-25
5.56509e-26
1.15917e-26
2.3832e-27
4.83697e-28
9.69276e-29
1.91796e-29
3.74809e-30
7.23453e-31
1.37943e-31
2.59852e-32
4.83665e-33
8.89625e-34
1.61719e-34
2.90575e-35
5.16112e-36
9.06287e-37
1.57351e-37
2.70146e-38
4.58667e-39
7.70212e-40
1.27932e-40
2.10205e-41
3.41699e-42
5.49566e-43
8.74606e-44
1.37739e-44
2.14681e-45
3.31174e-46
5.05687e-47
7.64372e-48
1.14383e-48
1.69466e-49
2.48602e-50
3.61125e-51
5.19487e-52
7.40094e-53
1.0443e-53
1.45956e-54
2.0207e-55
2.77139e-56
3.76563e-57
5.06931e-58
6.76175e-59
8.93709e-60
1.17054e-60
1.51934e-61
1.95447e-62
2.49191e-63
3.14914e-64
3.94484e-65
4.89858e-66
6.03027e-67
7.3596e-68
8.90519e-69
1.06838e-69
1.27095e-70
1.49922e-71
1.75374e-72
2.03443e-73
2.34058e-74
2.67069e-75
3.02249e-76
3.39286e-77
3.77787e-78
4.17278e-79
4.57217e-80
4.96997e-81
5.35967e-82
5.73447e-83
6.08747e-84
6.41188e-85
6.70126e-86
6.9497e-87
7.15205e-88
7.30409e-89
7.40268e-90
7.44583e-91
7.43285e-92
7.36428e-93
7.2419e-94
7.06865e-95
6.84853e-96
6.5864e-97
6.28786e-98
5.95903e-99
5.60635e-100
5.23635e-101
4.85551e-102
4.47005e-103
4.08575e-104
3.70789e-105
3.3411e-106
2.98932e-107
2.65575e-108
2.34285e-109
2.05237e-110
1.78539e-111
1.54237e-112
1.32322e-113
1.12739e-114
9.53946e-116
8.01667e-117
6.69106e-118
5.5467e-119
4.56694e-120
3.73487e-121
3.03386e-122
2.4479e-123
1.96191e-124
1.56193e-125
1.23524e-126
9.70414e-128
7.5733e-129
5.87146e-130
4.52217e-131
3.46017e-132
2.6303e-133
1.98645e-134
1.49047e-135
1.11109e-136
8.22932e-138
6.05584e-139
4.42779e-140
3.2167e-141
2.32195e-142
1.66539e-143
1.1869e-144
8.4052e-146
5.91462e-147
4.13577e-148
2.87371e-149
1.98423e-150
1.36148e-151
9.28342e-153
6.29049e-154
4.23593e-155
2.83469e-156
1.88521e-157
1.246e-158
8.1844e-160
5.3428e-161
3.46634e-162
2.2351e-163
1.43236e-164
9.12307e-166
5.77522e-167
3.63362e-168
2.27226e-169
1.41231e-170
8.72483e-172
5.35728e-173
3.26962e-174
1.98343e-175
1.19594e-176
7.1677e-178
4.27001e-179
2.52849e-180
1.48826e-181
8.7074e-183
5.06397e-184
2.92745e-185
1.68224e-186
9.60924e-188
5.45626e-189
3.07971e-190
1.72797e-191
9.63772e-193
5.34354e-194
2.94512e-195
1.6136e-196
8.78849e-198
4.75835e-199
2.5611e-200
1.37033e-201
7.28876e-203
3.85403e-204
2.02587e-205
1.05863e-206
5.49938e-208
2.84002e-209
1.45804e-210
7.4415e-212
3.77566e-213
1.90444e-214
9.54967e-216
4.76051e-217
2.3592e-218
1.16231e-219
5.69284e-221
2.77193e-222
1.34179e-223
6.45703e-225
3.0891e-226
1.46919e-227