# vtk DataFile Version 2.0
FlowField
ASCII
DATASET STRUCTURED_GRID
DIMENSIONS 1602 1 52
POINTS 83304 float
0 0 0
0.1 0 0
0.2 0 0
0.3 0 0
0.4 0 0
0.5 0 0
0.6 0 0
0.7 0 0
0.8 0 0
0.9 0 0
1 0 0
1.1 0 0
1.2 0 0
1.3 0 0
1.4 0 0
1.5 0 0
1.6 0 0
1.7 0 0
1.8 0 0
1.9 0 0
2 0 0
2.1 0 0
2.2 0 0
2.3 0 0
2.4 0 0
2.5 0 0
2.6 0 0
2.7 0 0
2.8 0 0
2.9 0 0
3 0 0
3.1 0 0
3.2 0 0
3.3 0 0
3.4 0 0
3.5 0 0
3.6 0 0
3.7 0 0
3.8 0 0
3.9 0 0
4 0 0
4.1 0 0
4.2 0 0
4.3 0 0
4.4 0 0
4.5 0 0
4.6 0 0
4.7 0 0
4.8 0 0
4.9 0 0
5 0 0
5.1 0 0
5.2 0 0
5.3 0 0
5.4 0 0
5.5 0 0
5.6 0 0
5.7 0 0
5.8 0 0
5.9 0 0
6 0 0
6.1 0 0
6.2 0 0
6.3 0 0
6.4 0 0
6.5 0 0
6.6 0 0
6.7 0 0
6.8 0 0
6.9 0 0
7 0 0
7.1 0 0
7.2 0 0
7.3 0 0
7.4 0 0
7.5 0 0
7.6 0 0
7.7 0 0
7.8 0 0
7.9 0 0
8 0 0
8.1 0 0
8.2 0 0
8.3 0 0
8.4 0 0
8.5 0 0
8.6 0 0
8.7 0 0
8.8 0 0
8.9 0 0
9 0 0
9.1 0 0
9.2 0 0
9.3 0 0
9.4 0 0
9.5 0 0
9.6 0 0
9.7 0 0
9.8 0 0
9.9 0 0
10 0 0
10.1 0 0
10.2 0 0
10.3 0 0
10.4 0 0
10.5 0 0
10.6 0 0
10.7 0 0
10.8 0 0
10.9 0 0
11 0 0
11.1 0 0
11.2 0 0
11.3 0 0
11.4 0 0
11.5 0 0
11.6 0 0
11.7 0 0
11.8 0 0
11.9 0 0
12 0 0
12.1 0 0
12.2 0 0
12.3 0 0
12.4 0 0
12.5 0 0
12.6 0 0
12.7 0 0
12.8 0 0
12.9 0 0
13 0 0
13.1 0 0
13.2 0 0
13.3 0 0
13.4 0 0
13.5 0 0
13.6 0 0
13.7 0 0
13.8 0 0
13.9 0 0
14 0 0
14.1 0 0
14.2 0 0
14.3 0 0
14.4 0 0
14.5 0 0
14.6 0 0
14.7 0 0
14.8 0 0
14.9 0 0
15 0 0
15.1 0 0
15.2 0 0
15.3 0 0
15.4 0 0
15.5 0 0
15.6 0 0
15.7 0 0
15.8 0 0
15.9 0 0
16 0 0
16.1 0 0
16.2 0 0
16.3 0 0
16.4 0 0
16.5 0 0
16.6 0 0
16.7 0 0
16.8 0 0
16.9 0 0
17 0 0
17.1 0 0
17.2 0 0
17.3 0 0
17.4 0 0
17.5 0 0
17.6 0 0
17.7 0 0
17.8 0 0
17.9 0 0
18 0 0
18.1 0 0
18.2 0 0
18.3 0 0
18.4 0 0
18.5 0 0
18.6 0 0
18.7 0 0
18.8 0 0
18.9 0 0
19 0 0
19.1 0 0
19.2 0 0
19.3 0 0
19.4 0 0
19.5 0 0
19.6 0 0
19.7 0 0
19.8 0 0
19.9 0 0
20 0 0
20.1 0 0
20.2 0 0
20.3 0 0
20.4 0 0
20.5 0 0
20.6 0 0
20.7 0 0
20.8 0 0
20.9 0 0
21 0 0
21.1 0 0
21.2 0 0
21.3 0 0
21.4 0 0
21.5 0 0
21.6 0 0
21.7 0 0
21.8 0 0
21.9 0 0
22 0 0
22.1 0 0
22.2 0 0
22.3 0 0
22.4 0 0
22.5 0 0
22.6 0 0
22.7 0 0
22.8 0 0
22.9 0 0
23 0 0
23.1 0 0
23.2 0 0
23.3 0 0
23.4 0 0
23.5 0 0
23.6 0 0
23.7 0 0
23.8 0 0
23.9 0 0
24 0 0
24.1 0 0
24.2 0 0
24.3 0 0
24.4 0 0
24.5 0 0
24.6 0 0
24.7 0 0
24.8 0 0
24.9 0 0
25 0 0
25.1 0 0
25.2 0 0
25.3 0 0
25.4 0 0
25.5 0 0
25.6 0 0
25.7 0 0
25.8 0 0
25.9 0 0
26 0 0
26.1 0 0
26.2 0 0
26.3 0 0
26.4 0 0
26.5 0 0
26.6 0 0
26.7 0 0
26.8 0 0
26.9 0 0
27 0 0
27.1 0 0
27.2 0 0
27.3 0 0
27.4 0 0
27.5 0 0
27.6 0 0
27.7 0 0
27.8 0 0
27.9 0 0
28 0 0
28.1 0 0
28.2 0 0
28.3 0 0
28.4 0 0
28.5 0 0
28.6 0 0
28.7 0 0
28.8 0 0
28.9 0 0
29 0 0
29.1 0 0
29.2 0 0
29.3 0 0
29.4 0 0
29.5 0 0
29.6 0 0
29.7 0 0
29.8 0 0
29.9 0 0
30 0 0
30.1 0 0
30.2 0 0
30.3 0 0
30.4 0 0
30.5 0 0
30.6 0 0
30.7 0 0
30.8 0 0
30.9 0 0
31 0 0
31.1 0 0
31.2 0 0
31.3 0 0
31.4 0 0
31.5 0 0
31.6 0 0
31.7 0 0
31.8 0 0
31.9 0 0
32 0 0
32.1 0 0
32.2 0 0
32.3 0 0
32.4 0 0
32.5 0 0
32.6 0 0
32.7 0 0
32.8 0 0
32.9 0 0
33 0 0
33.1 0 0
33.2 0 0
33.3 0 0
33.4 0 0
33.5 0 0
33.6 0 0
33.7 0 0
33.8 0 0
33.9 0 0
34 0 0
34.1 0 0
34.2 0 0
34.3 0 0
34.4 0 0
34.5 0 0
34.6 0 0
34.7 0 0
34.8 0 0
34.9 0 0
35 0 0
35.1 0 0
35.2 0 0
35.3 0 0
35.4 0 0
35.5 0 0
35.6 0 0
35.7 0 0
35.8 0 0
35.9 0 0
36 0 0
36.1 0 0
36.2 0 0
36.3 0 0
36.4 0 0
36.5 0 0
36.6 0 0
36.7 0 0
36.8 0 0
36.9 0 0
37 0 0
37.1 0 0
37.2 0 0
37.3 0 0
37.4 0 0
37.5 0 0
37.6 0 0
37.7 0 0
37.8 0 0
37.9 0 0
38 0 0
38.1 0 0
38.2 0 0
38.3 0 0
38.4 0 0
38.5 0 0
38.6 0 0
38.7 0 0
38.8 0 0
38.9 0 0
39 0 0
39.1 0 0
39.2 0 0
39.3 0 0
39.4 0 0
39.5 0 0
39.6 0 0
39.7 0 0
39.8 0 0
39.9 0 0
40 0 0
40.1 0 0
40.2 0 0
40.3 0 0
40.4 0 0
40.5 0 0
40.6 0 0
40.7 0 0
40.8 0 0
40.9 0 0
41 0 0
41.1 0 0
41.2 0 0
41.3 0 0
41.4 0 0
41.5 0 0
41.6 0 0
41.7 0 0
41.8 0 0
41.9 0 0
42 0 0
42.1 0 0
42.2 0 0
42.3 0 0
42.4 0 0
42.5 0 0
42.6 0 0
42.7 0 0
42.8 0 0
42.9 0 0
43 0 0
43.1 0 0
43.2 0 0
43.3 0 0
43.4 0 0
43.5 0 0
43.6 0 0
43.7 0 0
43.8 0 0
43.9 0 0
44 0 0
44.1 0 0
44.2 0 0
44.3 0 0
44.4 0 0
44.5 0 0
44.6 0 0
44.7 0 0
44.8 0 0
44.9 0 0
45 0 0
45.1 0 0
45.2 0 0
45.3 0 0
45.4 0 0
45.5 0 0
45.6 0 0
45.7 0 0
45.8 0 0
45.9 0 0
46 0 0
46.1 0 0
46.2 0 0
46.3 0 0
46.4 0 0
46.5 0 0
46.6 0 0
46.7 0 0
46.8 0 0
46.9 0 0
47 0 0
47.1 0 0
47.2 0 0
47.3 0 0
47.4 0 0
47.5 0 0
47.6 0 0
47.7 0 0
47.8 0 0
47.9 0 0
48 0 0
48.1 0 0
48.2 0 0
48.3 0 0
48.4 0 0
48.5 0 0
48.6 0 0
48.7 0 0
48.8 0 0
48.9 0 0
49 0 0
49.1 0 0
49.2 0 0
49.3 0 0
49.4 0 0
49.5 0 0
49.6 0 0
49.7 0 0
49.8 0 0
49.9 0 0
50 0 0
50.1 0 0
50.2 0 0
50.3 0 0
50.4 0 0
50.5 0 0
50.6 0 0
50.7 0 0
50.8 0 0
50.9 0 0
51 0 0
51.1 0 0
51.2 0 0
51.3 0 0
51.4 0 0
51.5 0 0
51.6 0 0
51.7 0 0
51.8 0 0
51.9 0 0
52 0 0
52.1 0 0
52.2 0 0
52.3 0 0
52.4 0 0
52.5 0 0
52.6 0 0
52.7 0 0
52.8 0 0
52.9 0 0
53 0 0
53.1 0 0
53.2 0 0
53.3 0 0
53.4 0 0
53.5 0 0
53.6 0 0
53.7 0 0
53.8 0 0
53.9 0 0
54 0 0
54.1 0 0
54.2 0 0
54.3 0 0
54.4 0 0
54.5 0 0
54.6 0 0
54.7 0 0
54.8 0 0
54.9 0 0
55 0 0
55.1 0 0
55.2 0 0
55.3 0 0
55.4 0 0
55.5 0 0
55.6 0 0
55.7 0 0
55.8 0 0
55.9 0 0
56 0 0
56.1 0 0
56.2 0 0
56.3 0 0
56.4 0 0
56.5 0 0
56.6 0 0
56.7 0 0
56.8 0 0
56.9 0 0
57 0 0
57.1 0 0
57.2 0 0
57.3 0 0
57.4 0 0
57.5 0 0
57.6 0 0
57.7 0 0
57.8 0 0
57.9 0 0
58 0 0
58.1 0 0
58.2 0 0
58.3 0 0
58.4 0 0
58.5 0 0
58.6 0 0
58.7 0 0
58.8 0 0
58.9 0 0
59 0 0
59.1 0 0
59.2 0 0
59.3 0 0
59.4 0 0
59.5 0 0
59.6 0 0
59.7 0 0
59.8 0 0
59.9 0 0
60 0 0
60.1 0 0
60.2 0 0
60.3 0 0
60.4 0 0
60.5 0 0
60.6 0 0
60.7 0 0
60.8 0 0
60.9 0 0
61 0 0
61.1 0 0
61.2 0 0
61.3 0 0
61.4 0 0
61.5 0 0
61.6 0 0
61.7 0 0
61.8 0 0
61.9 0 0
62 0 0
62.1 0 0
62.2 0 0
62.3 0 0
62.4 0 0
62.5 0 0
62.6 0 0
62.7 0 0
62.8 0 0
62.9 0 0
63 0 0
63.1 0 0
63.2 0 0
63.3 0 0
63.4 0 0
63.5 0 0
63.6 0 0
63.7 0 0
63.8 0 0
63.9 0 0
64 0 0
64.1 0 0
64.2 0 0
64.3 0 0
64.4 0 0
64.5 0 0
64.6 0 0
64.7 0 0
64.8 0 0
64.9 0 0
65 0 0
65.1 0 0
65.2 0 0
65.3 0 0
65.4 0 0
65.5 0 0
65.6 0 0
65.7 0 0
65.8 0 0
65.9 0 0
66 0 0
66.1 0 0
66.2 0 0
66.3 0 0
66.4 0 0
66.5 0 0
66.6 0 0
66.7 0 0
66.8 0 0
66.9 0 0
67 0 0
67.1 0 0
67.2 0 0
67.3 0 0
67.4 0 0
67.5 0 0
67.6 0 0
67.7 0 0
67.8 0 0
67.9 0 0
68 0 0
68.1 0 0
68.2 0 0
68.3 0 0
68.4 0 0
68.5 0 0
68.6 0 0
68.7 0 0
68.8 0 0
68.9 0 0
69 0 0
69.1 0 0
69.2 0 0
69.3 0 0
69.4 0 0
69.5 0 0
69.6 0 0
69.7 0 0
69.8 0 0
69.9 0 0
70 0 0
70.1 0 0
70.2 0 0
70.3 0 0
70.4 0 0
70.5 0 0
70.6 0 0
70.7 0 0
70.8 0 0
70.9 0 0
71 0 0
71.1 0 0
71.2 0 0
71.3 0 0
71.4 0 0
71.5 0 0
71.6 0 0
71.7 0 0
71.8 0 0
71.9 0 0
72 0 0
72.1 0 0
72.2 0 0
72.3 0 0
72.4 0 0
72.5 0 0
72.6 0 0
72.7 0 0
72.8 0 0
72.9 0 0
73 0 0
73.1 0 0
73.2 0 0
73.3 0 0
73.4 0 0
73.5 0 0
73.6 0 0
73.7 0 0
73.8 0 0
73.9 0 0
74 0 0
74.1 0 0
74.2 0 0
74.3 0 0
74.4 0 0
74.5 0 0
74.6 0 0
74.7 0 0
74.8 0 0
74.9 0 0
75 0 0
75.1 0 0
75.2 0 0
75.3 0 0
75.4 0 0
75.5 0 0
75.6 0 0
75.7 0 0
75.8 0 0
75.9 0 0
76 0 0
76.1 0 0
76.2 0 0
76.3 0 0
76.4 0 0
76.5 0 0
76.6 0 0
76.7 0 0
76.8 0 0
76.9 0 0
77 0 0
77.1 0 0
77.2 0 0
77.3 0 0
77.4 0 0
77.5 0 0
77.6 0 0
77.7 0 0
77.8 0 0
77.9 0 0
78 0 0
78.1 0 0
78.2 0 0
78.3 0 0
78.4 0 0
78.5 0 0
78.6 0 0
78.7 0 0
78.8 0 0
78.9 0 0
79 0 0
79.1 0 0
79.2 0 0
79.3 0 0
79.4 0 0
79.5 0 0
79.6 0 0
79.7 0 0
79.8 0 0
79.9 0 0
80 0 0
80.1 0 0
80.2 0 0
80.3 0 0
80.4 0 0
80.5 0 0
80.6 0 0
80.7 0 0
80.8 0 0
80.9 0 0
81 0 0
81.1 0 0
81.2 0 0
81.3 0 0
81.4 0 0
81.5 0 0
81.6 0 0
81.7 0 0
81.8 0 0
81.9 0 0
82 0 0
82.1 0 0
82.2 0 0
82.3 0 0
82.4 0 0
82.5 0 0
82.6 0 0
82.7 0 0
82.8 0 0
82.9 0 0
83 0 0
83.1 0 0
83.2 0 0
83.3 0 0
83.4 0 0
83.5 0 0
83.6 0 0
83.7 0 0
83.8 0 0
83.9 0 0
84 0 0
84.1 0 0
84.2 0 0
84.3 0 0
84.4 0 0
84.5 0 0
84.6 0 0
84.7 0 0
84.8 0 0
84.9 0 0
85 0 0
85.1 0 0
85.2 0 0
85.3 0 0
85.4 0 0
85.5 0 0
85.6 0 0
85.7 0 0
85.8 0 0
85.9 0 0
86 0 0
86.1 0 0
86.2 0 0
86.3 0 0
86.4 0 0
86.5 0 0
86.6 0 0
86.7 0 0
86.8 0 0
86.9 0 0
87 0 0
87.1 0 0
87.2 0 0
87.3 0 0
87.4 0 0
87.5 0 0
87.6 0 0
87.7 0 0
87.8 0 0
87.9 0 0
88 0 0
88.1 0 0
88.2 0 0
88.3 0 0
88.4 0 0
88.5 0 0
88.6 0 0
88.7 0 0
88.8 0 0
88.9 0 0
89 0 0
89.1 0 0
89.2 0 0
89.3 0 0
89.4 0 0
89.5 0 0
89.6 0 0
89.7 0 0
89.8 0 0
89.9 0 0
90 0 0
90.1 0 0
90.2 0 0
90.3 0 0
90.4 0 0
90.5 0 0
90.6 0 0
90.7 0 0
90.8 0 0
90.9 0 0
91 0 0
91.1 0 0
91.2 0 0
91.3 0 0
91.4 0 0
91.5 0 0
91.6 0 0
91.7 0 0
91.8 0 0
91.9 0 0
92 0 0
92.1 0 0
92.2 0 0
92.3 0 0
92.4 0 0
92.5 0 0
92.6 0 0
92.7 0 0
92.8 0 0
92.9 0 0
93 0 0
93.1 0 0
93.2 0 0
93.3 0 0
93.4 0 0
93.5 0 0
93.6 0 0
93.7 0 0
93.8 0 0
93.9 0 0
94 0 0
94.1 0 0
94.2 0 0
94.3 0 0
94.4 0 0
94.5 0 0
94.6 0 0
94.7 0 0
94.8 0 0
94.9 0 0
95 0 0
95.1 0 0
95.2 0 0
95.3 0 0
95.4 0 0
95.5 0 0
95.6 0 0
95.7 0 0
95.8 0 0
95.9 0 0
96 0 0
96.1 0 0
96.2 0 0
96.3 0 0
96.4 0 0
96.5 0 0
96.6 0 0
96.7 0 0
96.8 0 0
96.9 0 0
97 0 0
97.1 0 0
97.2 0 0
97.3 0 0
97.4 0 0
97.5 0 0
97.6 0 0
97.7 0 0
97.8 0 0
97.9 0 0
98 0 0
98.1 0 0
98.2 0 0
98.3 0 0
98.4 0 0
98.5 0 0
98.6 0 0
98.7 0 0
98.8 0 0
98.9 0 0
99 0 0
99.1 0 0
99.2 0 0
99.3 0 0
99.4 0 0
99.5 0 0
99.6 0 0
99.7 0 0
99.8 0 0
99.9 0 0
100 0 0
100.1 0 0
100.2 0 0
100.3 0 0
100.4 0 0
100.5 0 0
100.6 0 0
100.7 0 0
100.8 0 0
100.9 0 0
101 0 0
101.1 0 0
101.2 0 0
101.3 0 0
101.4 0 0
101.5 0 0
101.6 0 0
101.7 0 0
101.8 0 0
101.9 0 0
102 0 0
102.1 0 0
102.2 0 0
102.3 0 0
102.4 0 0
102.5 0 0
102.6 0 0
102.7 0 0
102.8 0 0
102.9 0 0
103 0 0
103.1 0 0
103.2 0 0
103.3 0 0
103.4 0 0
103.5 0 0
103.6 0 0
103.7 0 0
103.8 0 0
103.9 0 0
104 0 0
104.1 0 0
104.2 0 0
104.3 0 0
104.4 0 0
104.5 0 0
104.6 0 0
104.7 0 0
104.8 0 0
104.9 0 0
105 0 0
105.1 0 0
105.2 0 0
105.3 0 0
105.4 0 0
105.5 0 0
105.6 0 0
105.7 0 0
105.8 0 0
105.9 0 0
106 0 0
106.1 0 0
106.2 0 0
106.3 0 0
106.4 0 0
106.5 0 0
106.6 0 0
106.7 0 0
106.8 0 0
106.9 0 0
107 0 0
107.1 0 0
107.2 0 0
107.3 0 0
107.4 0 0
107.5 0 0
107.6 0 0
107.7 0 0
107.8 0 0
107.9 0 0
108 0 0
108.1 0 0
108.2 0 0
108.3 0 0
108.4 0 0
108.5 0 0
108.6 0 0
108.7 0 0
108.8 0 0
108.9 0 0
109 0 0
109.1 0 0
109.2 0 0
109.3 0 0
109.4 0 0
109.5 0 0
109.6 0 0
109.7 0 0
109.8 0 0
109.9 0 0
110 0 0
110.1 0 0
110.2 0 0
110.3 0 0
110.4 0 0
110.5 0 0
110.6 0 0
110.7 0 0
110.8 0 0
110.9 0 0
111 0 0
111.1 0 0
111.2 0 0
111.3 0 0
111.4 0 0
111.5 0 0
111.6 0 0
111.7 0 0
111.8 0 0
111.9 0 0
112 0 0
[...]
POINT_DATA 83304

SCALARS pressure float 1
LOOKUP_TABLE default
0
0
0
0
0
0
0
0
0
0
0
0
0
0
0
0
0
0
0
0
0
0
0
0
0
0
0
0
0
0
0
0
0
0
0
0
0
0
0
0
0
0
0
0
0
0
0
0
0
0
0
0
0
0
0
0
0
0
0
0
0
0
0
0
0
0
0
0
0
0
0
0
0
0
0
0
0
0
0
0
0
0
0
0
0
0
0
0
0
0
0
0
0
0
0
0
0
0
0
0
0
0
0
0
0
0
0
0
0
0
0
0
0
0
0
0
0
0
0
0
0
0
0
0
0
0
0
0
0
0
0
0
0
0
0
0
0
0
0
0
0
0
0
0
0
0
0
0
0
0
0
0
0
0
0
0
0
0
0
0
0
0
0
0
0
0
0
0
0
0
0
0
0
0
0
0
0
0
0
0
0
0
0
0
0
0
0
0
0
0
0
0
0
0
0
0
0
0
0
0
0
0
0
0
0
0
0
0
0
0
0
0
0
0
0
0
0
0
0
0
0
0
0
0
0
0
0
0
0
0
0
0
0
0
0
0
0
0
0
0
0
0
0
0
0
0
0
0
0
0
0
0
0
0
0
0
0
0
0
0
0
0
0
0
0
0
0
0
0
0
0
0
0
0
0
0
0
0
0
0
0
0
0
0
0
0
0
0
0
0
0
0
0
0
0
0
0
0
0
0
0
0
0
0
0
0
0
0
0
0
0
0
0
0
0
0
0
0
0
0
0
0
0
0
0
0
0
0
0
0
0
0
0
0
0
0
0
0
0
0
0
0
0
0
0
0
0
0
0
0
0
0
0
0
0
0
0
0
0
0
0
0
0
0
0
0
0
0
0
0
0
0
0
0
0
0
0
0
0
0
0
0
0
0
0
0
0
0
0
0
0
0
0
0
0
0
0
0
0
0
0
0
0
0
0
0
0
0
0
0
0
0
0
0
0
0
0
0
0
0
0
0
0
0
0
0
0
0
0
0
0
0
0
0
0
0
0
0
0
0
0
0
0
0
0
0
0
0
0
0
0
0
0
0
0
0
0
0
0
0
0
0
0
0
0
0
0
0
0
0
0
0
0
0
0
0
0
0
0
0
0
0
0
0
0
0
0
0
0
0
0
0
0
0
0
0
0
0
0
0
0
0
0
0
0
0
0
0
0
0
0
0
0
0
0
0
0
0
0
0
0
0
0
0
0
0
0
0
0
0
0
0
0
0
0
0
0
0
0
0
0
0
0
0
0
0
0
0
0
0
0
0
0
0
0
0
0
0
0
0
0
0
0
0
0
0
0
0
0
0
0
0
0
0
0
0
0
0
0
0
0
0
0
0
0
0
0
0
0
0
0
0
0
0
0
0
0
0
0
0
0
0
0
0
0
0
0
0
0
0
0
0
0
0
0
0
0
0
0
0
0
0
0
0
0
0
0
0
0
0
0
0
0
0
0
0
0
0
0
0
0
0
0
0
0
0
0
0
0
0
0
0
0
0
0
0
0
0
0
0
0
0
0
0
0
0
0
0
0
0
0
0
0
0
0
0
0
0
0
0
0
0
0
0
0
0
0
0
0
0
0
0
0
0
0
0
0
0
0
0
0
0
0
0
0
0
0
0
0
0
0
0
0
0
0
0
0
0
0
0
0
0
0
0
0
0
0
0
0
0
0
0
0
0
0
0
0
0
0
0
0
0
0
0
0
0
0
0
0
0
0
0
0
0
0
0
0
0
0
0
0
0
0
0
0
0
0
0
0
0
0
0
0
0
0
0
0
0
0
0
0
0
0
0
0
0
0
0
0
0
0
0
0
0
0
0
0
0
0
0
0
0
0
0
0
0
0
0
0
0
0
0
0
0
0
0
0
0
0
0
0
0
0
0
0
0
0
0
0
0
0
0
0
0
0
0
0
0
0
0
0
0
0
0
0
0
0
0
0
0
0
0
0
0
0
0
0
0
0
0
0
0
0
0
0
0
0
0
0
0
0
0
0
0
0
0
0
0
0
0
0
0
0
0
0
0
0
0
0
0
0
0
0
0
0
0
0
0
0
0
0
0
0
0
0
0
0
0
0
0
0
0
0
0
0
0
0
0
0
0
0
0
0
0
0
0
0
0
0
0
0
0
0
0
0
0
0
0
0
0
0
0
0
0
0
0
0
0
0
0
0
0
0
0
0
0
0
0
0
0
0
0
0
0
0
0
0
0
0
0
0
0
0
0
0
0
0
0
0
0
0
0
0
0
0
0
0
0
0
0
0
0
0
0
0
0
0
0
0
0
0
0
0
0
0
0
0
0
0
0
0
0
0
0
0
0
0
0
0
0
0
0
0
0
0
0
0
0
0
0
0
0
0
0
0
0
0
0
0
0
0
0
0
0
0
0
0
0
0
0
0
0
0
0
0
0
0
0
0
0
0
0
0
0
0
0
0
0
0
0
0
0
0
0
0
0
0
0
0
0
0
0
0
0
0
0
0
0
0
0
0
0
0
0
0
0
0
0
0
0
0
0
0
0
0
0
0
0
0
0
0
0
0
0
0
0
0
0
0
0
0
0
0
0
0
0
0
0
0
0
0
0
0
0
0
0
0
0
0
0
0
0
0
0
0
0
0
0
0
0
0
0
0
0
0
0
0
0
0
0
0
0
0
0
0
0
0
0
0
0
0
0
0
0
0
0
0
0
0
0
0
0
0
0
0
0
0
0
0
0
0
0
0
0
0
0
0
0
0
0
0
0
0
0
0
0
0
0
0
0
0
0
0
0
0
0
0
0
0
0
0
0
0
0
0
0
0
0
0
0
0
0
0
0
0
0
0
0
0
0
0
0
0
0
0
0
0
0
0
0
0
0
0
0
0
0
0
0
0
0
0
0
0
0
0
0
0
0
0
0
0
0
0
0
0
0
0
0
0
0
0
0
0
0
0
0
0
0
0
0
0
0
0
0
0
0
0
0
0
0
0
0
0
0
0
0
0
0
0
0
0
0
0
0
0
0
0
0
0
0
0
0
0
0
0
0
0
0
0
0
0
0
0
0
0
0
0
0
0
0
0
0
0
0
0
0
0
0
0
0
0
0
0
0
0
0
0
0
0
0
0
0
0
0
0
0
0
0
0
0
0
0
0
0
0
0
0
0
0
0
0
0
0
0
0
0
0
0
0
0
0
0
0
0
0
0
0
0
0
0
0
0
0
0
0
0
0
0
0
0
0
0
0
0
0
0
0
0
0
0
0
0
0
0
0
0
0
0
0
0
0
0
0
0
0
0
0
0
0
0
0
0
0
0
0
0
0
0
0
0
0
0
0
0
0
0
0
0
0
0
0
0
0
0
0
0
0
0
0
0
0
0
0
0
0
0
0
0
0
0
0
0
0
0
0
0
0
0
0
0
0
0
0
0
0
0
0
0
0
0
0
0
0
0
0
0
0
0
0
0
0
0
0
0
0
0
0
0
0
0
0
0
0
0
0
0
0
0
0
0
0
0
0
0
0
0
0
0
0
0
0
0
0
0
0
0
0
0
0
0
0
0
0
0
0
0
0
0
0
0
0
0
0
0
0
0
0
0
0
0
0
0
0
0
0
0
0
0
0
0
0
0
0
0
0
0
0
0
0
0
0
0
0
0
0
0
0
0
0
0
0
0
0
0.0776415
0.052903
0.0436505
0.0357426
0.03048
0.0271088
0.0248019
0.023116
0.0218008
0.0207277
0.0198235
0.0190436
0.0183596
0.0177519
0.0172066
0.0167134
0.0162643
0.0158532
0.0154749
0.0151254
0.0148012
0.0144993
0.0142174
0.0139533
0.0137051
0.0134714
0.0132506
0.0130416
0.0128434
0.0126549
0.0124753
0.0123039
0.0121401
0.0119833
0.0118328
0.0116884
0.0115494
0.0114156
0.0112866
0.0111621
0.0110418
0.0109255
0.0108128
0.0107037
0.0105979
0.0104953
0.0103956
0.0102987
0.0102046
0.0101129
0.0100238
0.0099369
0.00985226
0.00976974
0.00968924
0.00961069
0.009534
0.00945911
0.00938599
0.0093146
0.00924494
0.00917705
0.00911099
0.00904686
0.00898478
0.0089249
0.00886738
0.00881236
0.00875994
0.0087101
0.00866272
0.00861748
0.00857381
0.00853087
0.00848753
0.00844236
0.0083937
0.0083398
0.00827891
0.0082096
0.00813099
0.00804315
0.00794738
0.00784663
0.00774567
0.0076513
0.00757216
0.00751848
0.00750134
0.00753173
0.00761918
0.00777023
0.00798668
0.0082638
0.00858873
0.00893919
0.00928267
0.00957642
0.00976838
0.0097994
0.009607
0.00913116
0.00832261
0.00715134
0.00561606
0.00375735
0.00166929
-0.000492536
-0.00251445
-0.00414521
-0.0051267
-0.00522625
-0.00426254
-0.00212584
0.00121662
0.00572776
0.0113079
0.0178123
0.025065
0.0328752
0.0410476
0.049378
0.0576538
0.0656854
0.0732923
0.0802572
0.0863394
0.0913513
0.0952068
0.0978882
0.0993878
0.0996931
0.0988129
0.0968023
0.0937667
0.0898497
0.0852178
0.0800487
0.0745208
0.0688031
0.0630476
0.0573827
0.0519106
0.0467073
0.041825
0.0372949
0.0331316
0.0293364
0.0259009
0.0228094
0.0200418
0.0175752
0.0153854
0.0134477
0.0117381
0.0102335
0.00891237
0.00775449
0.00674139
0.0058563
0.00508404
0.00441099
0.00382499
0.00331525
0.00287219
0.00248736
0.00215331
0.0018635
0.00161221
0.00139441
0.00120571
0.0010423
0.000900823
0.000778381
0.000672442
0.000580808
0.000501566
0.000433057
0.00037384
0.000322666
0.000278452
0.000240257
0.000207269
0.000178784
0.00015419
0.000132959
0.000114635
9.8822e-05
8.51782e-05
7.34078e-05
6.3255e-05
5.44988e-05
4.69482e-05
4.04381e-05
3.4826e-05
2.99886e-05
2.58196e-05
2.22272e-05
1.9132e-05
1.64655e-05
1.41688e-05
1.21907e-05
1.04874e-05
9.0208e-06
7.75825e-06
6.67148e-06
5.73616e-06
4.93128e-06
4.23875e-06
3.64297e-06
3.13048e-06
2.68972e-06
2.31068e-06
1.98478e-06
1.70459e-06
1.46375e-06
1.25675e-06
1.07887e-06
9.26031e-07
7.94725e-07
6.81936e-07
5.85066e-07
5.0188e-07
4.30456e-07
3.69139e-07
3.16508e-07
2.71338e-07
2.32578e-07
1.99323e-07
1.70796e-07
1.46327e-07
1.25344e-07
1.07351e-07
9.19266e-08
7.87048e-08
6.73731e-08
5.76631e-08
4.93438e-08
4.22174e-08
3.61136e-08
3.08867e-08
2.64115e-08
2.25805e-08
1.93015e-08
1.64956e-08
1.4095e-08
1.20416e-08
1.02855e-08
8.78405e-09
7.5007e-09
6.40412e-09
5.46738e-09
4.6673e-09
3.98387e-09
3.39985e-09
2.90048e-09
2.47321e-09
2.10748e-09
1.79436e-09
1.52627e-09
1.29662e-09
1.09968e-09
9.30613e-10
7.856e-10
6.62076e-10
5.58708e-10
4.7501e-10
4.10546e-10
3.63879e-10
3.31642e-10
3.0817e-10
2.86041e-10
2.57581e-10
2.17019e-10
1.62603e-10
9.79093e-11
3.16562e-11
-2.41873e-11
-5.76564e-11
-6.05332e-11
-3.14126e-11
2.29718e-11
8.87585e-11
1.48193e-10
1.84254e-10
1.85355e-10
1.48717e-10
8.13836e-11
-1.47979e-12
-8.05415e-11
-1.37388e-10
-1.59305e-10
-1.42434e-10
-9.24829e-11
-2.28992e-11
4.8881e-11
1.05997e-10
1.36275e-10
1.34852e-10
1.04734e-10
5.535e-11
-3.47715e-13
-4.93448e-11
-8.165e-11
-9.22795e-11
-8.17843e-11
-5.53823e-11
-2.11014e-11
1.24719e-11
3.82349e-11
5.19424e-11
5.26937e-11
4.25649e-11
2.56231e-11
6.66306e-12
-9.98711e-12
-2.13269e-11
-2.6078e-11
-2.4615e-11
-1.85426e-11
-1.00898e-11
-1.49732e-12
5.46319e-12
9.75973e-12
1.11481e-11
1.00385e-11
7.25354e-12
3.7563e-12
4.15276e-13
-2.15157e-12
-3.64027e-12
-4.04195e-12
-3.567e-12
-2.54372e-12
-1.3198e-12
-1.86765e-13
6.63099e-13
1.14736e-12
1.27857e-12
1.13434e-12
8.22945e-13
4.52855e-13
1.11339e-13
-1.46257e-13
-2.9758e-13
-3.47437e-13
-3.18398e-13
-2.40834e-13
-1.44587e-13
-5.34042e-14
1.763e-14
6.21398e-14
8.07972e-14
7.88489e-14
6.35899e-14
4.22968e-14
2.08681e-14
3.19545e-15
-8.86697e-15
-1.51351e-14
-1.65415e-14
-1.45673e-14
-1.07737e-14
-6.48673e-15
-2.63975e-15
2.53382e-16
2.03782e-15
2.81314e-15
2.82069e-15
2.34706e-15
1.65558e-15
9.47978e-16
3.51838e-16
-7.36625e-17
-3.21882e-16
-4.19513e-16
-4.08878e-16
-3.34356e-16
-2.33794e-16
-1.34485e-16
-5.2618e-17
5.08772e-18
3.87307e-17
5.24521e-17
5.20777e-17
4.34291e-17
3.13284e-17
1.91873e-17
9.01044e-18
1.64112e-18
-2.89604e-18
-5.05542e-18
-5.49204e-18
-4.86674e-18
-3.73331e-18
-2.49188e-18
-1.38842e-18
-5.4036e-19
2.71991e-20
3.45515e-19
4.72499e-19
4.7156e-19
3.98826e-19
2.97206e-19
1.95266e-19
1.08969e-19
4.47072e-20
2.54937e-21
-2.09363e-20
-3.05606e-20
-3.11257e-20
-2.66671e-20
-2.01643e-20
-1.35525e-20
-7.89612e-21
-3.62222e-21
-7.47179e-22
9.35821e-22
1.72105e-21
1.90377e-21
1.73401e-21
1.399e-21
1.02376e-21
6.8107e-22
4.049e-22
2.03507e-22
7.03083e-23
-8.12296e-24
-4.68096e-23
-5.93812e-23
-5.6722e-23
-4.66801e-23
-3.43732e-23
-2.27548e-23
-1.32311e-23
-6.20777e-24
-1.52028e-24
1.26205e-24
2.64127e-24
3.08132e-24
2.95826e-24
2.54805e-24
2.03524e-24
1.53088e-24
1.09236e-24
7.41351e-25
4.78005e-25
2.91343e-25
1.66078e-25
8.67117e-26
3.96558e-26
1.40493e-26
1.80999e-27
-2.7102e-27
-3.2217e-27
-2.00108e-27
-3.30544e-28
1.15414e-27
2.20801e-27
2.80106e-27
3.00507e-27
2.92624e-27
2.66894e-27
2.3193e-27
1.94046e-27
1.57398e-27
1.24382e-27
9.61044e-28
7.28009e-28
5.41833e-28
3.9689e-28
2.86518e-28
2.04086e-28
1.43573e-28
9.98355e-29
6.86689e-29
4.67481e-29
3.15158e-29
2.10504e-29
1.39361e-29
9.14817e-30
5.95644e-30
3.84797e-30
2.4671e-30
1.57024e-30
9.92352e-31
6.22845e-31
3.88323e-31
2.40539e-31
1.48057e-31
9.05712e-32
5.50725e-32
3.32905e-32
2.00081e-32
1.19574e-32
7.10675e-33
4.20096e-33
2.47011e-33
1.44482e-33
8.40781e-34
4.8681e-34
2.80465e-34
1.60796e-34
9.1745e-35
5.2099e-35
2.94474e-35
1.65677e-35
9.27907e-36
5.17366e-36
2.87189e-36
1.58723e-36
8.73441e-37
4.78602e-37
2.61146e-37
1.41899e-37
7.67868e-38
4.13829e-38
2.22127e-38
1.18754e-38
6.32375e-39
3.3543e-39
1.77233e-39
9.32868e-40
4.89151e-40
2.55522e-40
1.32981e-40
6.89517e-41
3.56209e-41
1.83351e-41
9.40361e-42
4.80563e-42
2.44717e-42
1.24179e-42
6.27932e-43
3.16425e-43
1.58904e-43
7.95267e-44
3.9666e-44
1.97179e-44
9.76905e-45
4.82393e-45
2.3742e-45
1.16469e-45
5.69496e-46
2.77567e-46
1.3485e-46
6.5305e-47
3.15258e-47
1.51711e-47
7.27796e-48
3.48057e-48
1.65939e-48
7.88695e-49
3.73718e-49
1.76546e-49
8.31497e-50
3.90444e-50
1.82793e-50
8.53235e-51
3.97096e-51
1.84267e-51
8.52566e-52
3.93321e-52
1.8093e-52
8.29895e-53
3.79571e-53
1.73112e-53
7.87282e-54
3.57033e-54
1.61462e-54
7.28145e-55
3.27461e-55
1.46859e-55
6.5682e-56
2.92957e-56
1.3031e-56
5.78057e-57
2.55736e-57
1.12836e-57
4.96521e-58
2.17908e-58
9.53794e-59
4.1638e-59
1.81294e-59
7.87298e-60
3.41007e-60
1.47319e-60
6.34794e-61
2.72828e-61
1.16958e-61
5.00108e-62
2.13301e-62
9.07449e-63
3.85084e-63
1.63004e-63
6.88262e-64
2.89886e-64
1.21793e-64
5.10438e-65
2.13399e-65
8.89975e-66
3.70255e-66
1.53662e-66
6.36174e-67
2.62746e-67
1.08256e-67
4.44962e-68
1.82455e-68
7.4637e-69
3.04594e-69
1.24011e-69
5.03704e-70
2.04113e-70
8.25181e-71
3.32824e-71
1.33927e-71
5.37673e-72
2.1536e-72
8.60619e-73
3.43132e-73
1.36496e-73
5.41735e-74
2.1452e-74
8.47553e-75
3.34107e-75
1.3141e-75
5.15698e-76
2.01927e-76
7.88904e-77
3.07532e-77
1.19618e-77
4.6424e-78
1.79777e-78
6.94661e-79
2.67832e-79
1.0304e-79
3.95554e-80
1.51518e-80
5.79142e-81
2.20887e-81
8.40667e-82
3.19263e-82
1.20989e-82
4.57528e-83
1.72651e-83
6.50133e-84
2.44297e-84
9.16055e-85
3.42779e-85
1.27996e-85
4.76954e-86
1.77358e-86
6.58151e-87
2.43726e-87
9.00705e-88
3.32178e-88
1.22255e-88
4.4903e-89
1.64588e-89
6.02057e-90
2.19784e-90
8.0071e-91
2.91124e-91
1.05635e-91
3.82529e-92
1.38246e-92
4.98624e-93
1.79486e-93
6.44797e-94
2.31183e-94
8.27238e-95
2.95426e-95
1.05296e-95
3.74565e-96
1.32981e-96
4.71202e-97
1.6664e-97
5.88175e-98
2.07202e-98
7.28521e-99
2.55655e-99
8.95427e-100
3.13021e-100
1.09216e-100
3.8034e-101
1.32199e-101
4.5863e-102
1.58808e-102
5.48861e-103
1.89336e-103
6.51908e-104
2.2404e-104
7.68513e-105
2.63127e-105
8.99231e-106
3.06739e-106
1.04439e-106
3.54937e-107
1.20403e-107
4.07685e-108
1.37789e-108
4.64843e-109
1.56533e-109
5.26151e-110
1.76533e-110
5.91221e-111
1.97646e-111
6.59538e-112
2.19689e-112
7.30455e-113
2.42437e-113
8.03204e-114
2.65629e-114
8.76898e-115
2.88968e-115
9.50556e-116
3.1213e-116
1.02311e-116
3.3477e-117
1.09346e-117
3.56529e-118
1.16045e-118
3.77046e-119
1.22294e-119
3.95966e-120
1.27984e-120
4.1295e-121
1.33011e-121
4.27687e-122
1.37282e-122
4.39901e-123
1.40718e-123
4.49364e-124
1.43253e-124
4.55897e-125
1.4484e-125
4.59381e-126
1.45452e-126
4.59757e-127
1.45079e-127
4.5703e-128
1.43732e-128
4.51267e-129
1.41444e-129
4.42596e-130
1.38262e-130
4.31198e-131
1.34253e-131
4.17303e-132
1.29497e-132
4.01186e-133
1.24084e-133
3.83149e-134
1.18115e-134
3.63522e-135
1.11697e-135
3.42645e-136
1.04939e-136
3.20862e-137
9.79478e-138
2.98514e-138
9.08303e-139
2.75927e-139
8.36864e-140
2.53405e-140
7.66086e-141
2.31228e-141
6.96799e-142
2.09642e-142
6.29733e-143
1.88861e-143
5.65502e-144
1.69058e-144
5.04603e-145
1.50375e-145
4.47419e-146
1.32913e-146
3.94218e-147
1.16741e-147
3.45164e-148
1.01894e-148
3.00326e-149
8.8381e-150
2.59685e-150
7.61834e-151
2.23151e-151
6.52623e-152
1.9057e-152
5.55616e-153
1.61743e-153
4.70118e-154
1.36433e-154
3.95337e-155
1.1438e-155
3.30419e-156
9.53057e-157
2.7448e-157
7.89297e-158
2.26626e-158
6.49713e-159
1.85984e-159
5.31584e-160
1.5171e-160
4.32314e-161
1.23008e-161
3.49473e-162
9.91385e-163
2.80816e-163
7.94239e-164
2.24302e-164
6.3251e-165
1.78097e-165
5.00725e-166
1.40572e-166
3.94054e-167
1.10299e-167
3.08279e-168
8.60355e-169
2.39758e-169
6.6716e-170
1.85375e-170
5.14321e-171
1.4249e-171
3.94185e-172
1.08889e-172
3.00354e-173
8.27282e-174
2.27533e-174
6.24892e-175
1.71371e-175
4.69294e-176
1.28329e-176
3.50413e-177
9.55458e-178
2.60147e-178
7.07303e-179
1.9203e-179
5.20612e-180
1.40941e-180
3.81018e-181
1.02857e-181
2.77272e-182
7.46385e-183
2.00634e-183
5.38559e-184
1.4436e-184
3.86413e-185
1.03286e-185
2.75693e-186
7.34848e-187
1.95597e-187
5.19898e-188
1.37997e-188
3.65774e-189
9.68172e-190
2.5591e-190
6.75492e-191
1.78054e-191
4.68683e-192
1.23199e-192
3.23398e-193
8.47748e-194
2.21921e-194
5.80142e-195
1.51451e-195
3.94836e-196
1.02794e-196
2.67252e-197
6.9388e-198
1.7991e-198
4.65837e-199
1.20455e-199
3.11045e-200
8.02111e-201
2.06565e-201
5.31244e-202
1.36441e-202
3.49952e-203
8.96373e-204
2.2929e-204
5.85731e-205
1.49427e-205
3.80697e-206
9.6861e-207
2.46115e-207
6.24523e-208
1.58264e-208
4.00531e-209
1.01231e-209
2.55515e-210
6.44086e-211
1.62143e-211
4.0764e-212
1.02349e-212
2.56636e-213
6.4266e-214
1.60722e-214
4.01419e-215
1.00127e-215
2.49424e-216
6.20522e-217
1.54173e-217
3.82557e-218
9.48018e-219
2.34624e-219
5.79917e-220
1.43151e-220
3.52909e-221
8.68899e-222
2.13656e-222
5.24686e-223
1.28684e-223
3.15205e-224
7.71084e-225
1.88388e-225
4.59674e-226
1.12019e-226
2.72631e-227
6.62682e-228
1.60873e-228
3.90037e-229
9.44448e-230
2.28401e-230
5.51656e-231
1.33072e-231
3.20596e-232
7.71398e-233
1.85375e-233
4.44916e-234
1.06649e-234
2.55323e-235
6.10489e-236
1.45788e-236
3.47713e-237
8.28279e-238
1.97056e-238
4.68232e-239
1.1112e-239
2.63379e-240
6.23492e-241
1.47415e-241
3.48107e-242
8.21007e-243
1.93394e-243
4.54991e-244
1.06912e-244
2.50908e-245
5.88124e-246
1.37686e-246
3.2194e-247
7.51846e-248
1.75368e-248
4.08545e-249
9.50603e-250
2.20916e-250
5.12775e-251
1.18877e-251
2.75258e-252
6.36581e-253
1.47042e-253
3.39236e-254
7.81693e-255
1.79906e-255
4.13553e-256
9.49494e-257
2.17736e-257
4.98707e-258
1.14087e-258
2.60681e-259
5.94922e-260
1.35609e-260
3.08745e-261
7.02088e-262
1.59465e-262
3.61759e-263
8.19703e-264
1.85514e-264
4.19355e-265
9.46828e-266
2.13523e-266
4.80956e-267
1.08206e-267
2.43156e-268
5.45764e-269
1.22353e-269
2.73974e-270
6.12768e-271
1.3689e-271
3.05448e-272
6.80761e-273
1.51545e-273
3.36964e-274
7.4837e-275
1.66013e-275
3.67843e-276
8.14097e-277
1.79964e-277
3.97365e-278
8.76374e-279
1.93057e-279
4.24796e-280
9.33624e-281
2.04956e-281
4.49418e-282
9.84323e-283
2.1534e-283
4.70558e-284
1.02708e-284
2.2392e-285
4.87624e-286
1.06067e-286
2.30451e-287
5.00127e-288
1.08414e-288
2.34745e-289
5.07706e-290
1.09682e-290
2.3668e-291
5.10149e-292
1.09835e-292
2.36205e-293
5.07397e-294
1.08872e-294
2.33342e-295
4.99551e-296
1.06826e-296
2.28184e-297
4.86862e-298
1.03762e-298
2.20894e-299
4.69722e-300
9.97729e-301
2.11689e-301
4.48641e-302
9.49761e-303
2.00838e-303
4.24222e-304
8.9507e-305
1.88642e-305
3.97134e-306
8.3513e-307
1.75424e-307
3.68082e-308
7.71471e-309
1.61515e-309
3.37777e-310
7.05612e-311
1.4724e-311
3.06906e-312
6.3901e-313
1.32903e-313
2.76111e-314
5.73004e-315
1.18784e-315
2.45969e-316
5.08779e-317
1.05125e-317
2.16974e-318
4.47347e-319
9.21284e-320
1.89524e-320
3.89818e-321
7.95446e-322
1.58101e-322
2.96439e-323
0
0
0
0
0
0
0
0
0
0
0
0
0
0
0
0
0
0
0
0
0
0
0
0
0
0
0
0
0
0
0
0
0
0
0
0
0
0
0
0
0
0
0
0
0
0
0
0
0
0
0
0
0
0
0
0
0
0
0
0
0
0
0
0
0
0
0
0
0
0
0
0
0
0
0
0
0
0
0
0
0
0
0
0
0
0
0
0
0
0
0
0
0
0
0
0
0
0
0
0
0
0
0
0
0
0
0
0
0
0
0
0
0
0
0
0
0
0
0
0
0
0
0
0
0
0
0
0
0
0
0
0
0
0
0
0
0
0
0
0
0
0
0
0
0
0
0
0
0
0
0
0
0
0
0
0
0
0
0
0
0
0
0
0
0
0
0
0
0
0
0
0
0
0
0
0
0
0
0
0
0
0
0
0
0
0
0
0
0
0
0
0
0
0
0
0
0
0
0
0
0
0
0
0
0
0
0
0
0
0
0
0
0
0
0
0
0
0
0
0
0
0
0
0
0
0
0
0
0
0
0
0
0
0
0
0
0
0
0
0
0
0
0
0
0
0
0
0
0
0
0
0
0
0
0
0
0
0
0
0
0
0
0
0
0
0
0
0
0
0
0
0
0
0
0
0
0
0
0
0
0
0
0
0
0
0
0
0
0
0
0
0
0
0
0
0
0
0
0
0
0
0
0
0
0
0
0
0
0
0
0
0
0
0
0
0
0
0
0
0
0
0
0
0
0
0
0
0
0
0
0
0
0
0
0
0
0
0
0
0
0
0
0
0
0
0
0
0
0
0
0
0
0
0
0
0
0
0
0
0
0
0
0
0
0
0
0
0
0
0
0
0
0
0
0
0
0
0
0
0
0
0
0
0
0
0
0
0
0
0
0
0
0
0
0
0
0
0
0
0
0
0
0
0
0
0
0
0
0
0
0
0
0
0
0
0
0
0
0
0
0
0
0
0
0
0
0
0
0
0
0
0
0
0
0
0
0
0
0
0
0
0
0
0
0
0
0
0
0
0
0
0
0
0
0
0
0
0
0
0
0
0
0
0
0
0
0
0
0
0
0
0
0
0
0
0
0
0
0
0
0
0
0
0
0
0
0
0
0
0
0
0
0
0
0
0
0
0
0
0
0
0
0
0
0
0
0
0
0
0
0
0
0
0
0
0
0
0
0
0
0
0
0
0
0
0
0
0
0
0
0
0
0
0
0
0
0
0.062787
0.0345542
0.0299574
0.025277
0.0221391
0.0200069
0.0184495
0.0172639
0.0163155
0.0155312
0.0148652
0.0142884
0.013781
0.0133294
0.0129237
0.0125563
0.0122216
0.0119149
0.0116326
0.0113716
0.0111293
0.0109037
0.0106929
0.0104953
0.0103096
0.0101346
0.00996925
0.00981273
0.00966419
0.00952296
0.0093884
0.00925997
0.00913718
0.00901959
0.00890681
0.00879848
0.00869429
0.00859397
0.00849724
0.00840387
0.00831366
0.00822641
0.00814195
0.00806013
0.00798078
0.00790379
0.00782903
0.00775639
0.00768577
0.00761706
0.00755017
0.00748503
0.00742155
0.00735966
0.00729928
0.00724036
0.00718283
0.00712665
0.00707178
0.00701821
0.00696593
0.00691495
0.00686533
0.00681714
0.00677048
0.00672544
0.00668217
0.00664077
0.00660132
0.00656384
0.00652825
0.00649434
0.00646171
0.00642975
0.00639765
0.00636435
0.00632861
0.00628909
0.00624444
0.00619351
0.00613553
0.00607039
0.00599889
0.00592303
0.00584619
0.00577326
0.00571061
0.00566585
0.00564739
0.0056637
0.00572233
0.00582879
0.00598517
0.00618884
0.00643113
0.00669641
0.00696134
0.00719484
0.00735869
0.007409
0.00729876
0.00698171
0.00641817
0.00558125
0.00446338
0.00308615
0.00151051
-0.00015587
-0.00175712
-0.00310139
-0.00398471
-0.0042174
-0.00364731
-0.00217843
0.000219696
0.00351695
0.00762992
0.0124353
0.0177811
0.0235022
0.0294313
0.0353961
0.0412261
0.0467748
0.0519155
0.0565147
0.0604388
0.0635974
0.0659676
0.0675687
0.0684245
0.0685519
0.0679736
0.0667302
0.0648804
0.0624968
0.0596602
0.0564572
0.0529788
0.0493173
0.0455628
0.0417988
0.0380979
0.0345202
0.0311118
0.0279056
0.0249225
0.0221732
0.0196601
0.0173793
0.015322
0.0134763
0.0118282
0.0103624
0.00906347
0.00791589
0.00690477
0.00601599
0.00523635
0.00455369
0.00395688
0.00343586
0.00298155
0.00258585
0.00224152
0.00194214
0.00168204
0.00145623
0.00126029
0.00109036
0.000943068
0.000815449
0.00070492
0.000609227
0.000526405
0.000454746
0.000392763
0.000339162
0.000292822
0.000252769
0.000218157
0.000188253
0.000162421
0.000140112
0.000120849
0.000104218
8.98623e-05
7.74727e-05
6.67817e-05
5.75577e-05
4.96007e-05
4.27377e-05
3.68192e-05
3.17158e-05
2.73161e-05
2.35234e-05
2.02546e-05
1.74376e-05
1.50103e-05
1.29192e-05
1.11178e-05
9.56631e-06
8.23021e-06
7.07974e-06
6.08925e-06
5.23662e-06
4.50275e-06
3.87119e-06
3.32776e-06
2.86021e-06
2.458e-06
2.11206e-06
1.81455e-06
1.55872e-06
1.33877e-06
1.14969e-06
9.87177e-07
8.47509e-07
7.27495e-07
6.24384e-07
5.35807e-07
4.59727e-07
3.9439e-07
3.38288e-07
2.90121e-07
2.48774e-07
2.13286e-07
1.82832e-07
1.56702e-07
1.34284e-07
1.15056e-07
9.8564e-08
8.44224e-08
7.22978e-08
6.19042e-08
5.29957e-08
4.53615e-08
3.88203e-08
3.32165e-08
2.84165e-08
2.43058e-08
2.07858e-08
1.77724e-08
1.51929e-08
1.29854e-08
1.10965e-08
9.48066e-09
8.09859e-09
6.91678e-09
5.90651e-09
5.04317e-09
4.30568e-09