# vtk DataFile Version 2.0
FlowField
ASCII
DATASET STRUCTURED_GRID
DIMENSIONS 1602 1 52
POINTS 83304 float
0 0 0
0.1 0 0
0.2 0 0
0.3 0 0
0.4 0 0
0.5 0 0
0.6 0 0
0.7 0 0
0.8 0 0
0.9 0 0
1 0 0
1.1 0 0
1.2 0 0
1.3 0 0
1.4 0 0
1.5 0 0
1.6 0 0
1.7 0 0
1.8 0 0
1.9 0 0
2 0 0
2.1 0 0
2.2 0 0
2.3 0 0
2.4 0 0
2.5 0 0
2.6 0 0
2.7 0 0
2.8 0 0
2.9 0 0
3 0 0
3.1 0 0
3.2 0 0
3.3 0 0
3.4 0 0
3.5 0 0
3.6 0 0
3.7 0 0
3.8 0 0
3.9 0 0
4 0 0
4.1 0 0
4.2 0 0
4.3 0 0
4.4 0 0
4.5 0 0
4.6 0 0
4.7 0 0
4.8 0 0
4.9 0 0
5 0 0
5.1 0 0
5.2 0 0
5.3 0 0
5.4 0 0
5.5 0 0
5.6 0 0
5.7 0 0
5.8 0 0
5.9 0 0
6 0 0
6.1 0 0
6.2 0 0
6.3 0 0
6.4 0 0
6.5 0 0
6.6 0 0
6.7 0 0
6.8 0 0
6.9 0 0
7 0 0
7.1 0 0
7.2 0 0
7.3 0 0
7.4 0 0
7.5 0 0
7.6 0 0
7.7 0 0
7.8 0 0
7.9 0 0
8 0 0
8.1 0 0
8.2 0 0
8.3 0 0
8.4 0 0
8.5 0 0
8.6 0 0
8.7 0 0
8.8 0 0
8.9 0 0
9 0 0
9.1 0 0
9.2 0 0
9.3 0 0
9.4 0 0
9.5 0 0
9.6 0 0
9.7 0 0
9.8 0 0
9.9 0 0
10 0 0
10.1 0 0
10.2 0 0
10.3 0 0
10.4 0 0
10.5 0 0
10.6 0 0
10.7 0 0
10.8 0 0
10.9 0 0
11 0 0
11.1 0 0
11.2 0 0
11.3 0 0
11.4 0 0
11.5 0 0
11.6 0 0
11.7 0 0
11.8 0 0
11.9 0 0
12 0 0
12.1 0 0
12.2 0 0
12.3 0 0
12.4 0 0
12.5 0 0
12.6 0 0
12.7 0 0
12.8 0 0
12.9 0 0
13 0 0
13.1 0 0
13.2 0 0
13.3 0 0
13.4 0 0
13.5 0 0
13.6 0 0
13.7 0 0
13.8 0 0
13.9 0 0
14 0 0
14.1 0 0
14.2 0 0
14.3 0 0
14.4 0 0
14.5 0 0
14.6 0 0
14.7 0 0
14.8 0 0
14.9 0 0
15 0 0
15.1 0 0
15.2 0 0
15.3 0 0
15.4 0 0
15.5 0 0
15.6 0 0
15.7 0 0
15.8 0 0
15.9 0 0
16 0 0
16.1 0 0
16.2 0 0
16.3 0 0
16.4 0 0
16.5 0 0
16.6 0 0
16.7 0 0
16.8 0 0
16.9 0 0
17 0 0
17.1 0 0
17.2 0 0
17.3 0 0
17.4 0 0
17.5 0 0
17.6 0 0
17.7 0 0
17.8 0 0
17.9 0 0
18 0 0
18.1 0 0
18.2 0 0
18.3 0 0
18.4 0 0
18.5 0 0
18.6 0 0
18.7 0 0
18.8 0 0
18.9 0 0
19 0 0
19.1 0 0
19.2 0 0
19.3 0 0
19.4 0 0
19.5 0 0
19.6 0 0
19.7 0 0
19.8 0 0
19.9 0 0
20 0 0
20.1 0 0
20.2 0 0
20.3 0 0
20.4 0 0
20.5 0 0
20.6 0 0
20.7 0 0
20.8 0 0
20.9 0 0
21 0 0
21.1 0 0
21.2 0 0
21.3 0 0
21.4 0 0
21.5 0 0
21.6 0 0
21.7 0 0
21.8 0 0
21.9 0 0
22 0 0
22.1 0 0
22.2 0 0
22.3 0 0
22.4 0 0
22.5 0 0
22.6 0 0
22.7 0 0
22.8 0 0
22.9 0 0
23 0 0
23.1 0 0
23.2 0 0
23.3 0 0
23.4 0 0
23.5 0 0
23.6 0 0
23.7 0 0
23.8 0 0
23.9 0 0
24 0 0
24.1 0 0
24.2 0 0
24.3 0 0
24.4 0 0
24.5 0 0
24.6 0 0
24.7 0 0
24.8 0 0
24.9 0 0
25 0 0
25.1 0 0
25.2 0 0
25.3 0 0
25.4 0 0
25.5 0 0
25.6 0 0
25.7 0 0
25.8 0 0
25.9 0 0
26 0 0
26.1 0 0
26.2 0 0
26.3 0 0
26.4 0 0
26.5 0 0
26.6 0 0
26.7 0 0
26.8 0 0
26.9 0 0
27 0 0
27.1 0 0
27.2 0 0
27.3 0 0
27.4 0 0
27.5 0 0
27.6 0 0
27.7 0 0
27.8 0 0
27.9 0 0
28 0 0
28.1 0 0
28.2 0 0
28.3 0 0
28.4 0 0
28.5 0 0
28.6 0 0
28.7 0 0
28.8 0 0
28.9 0 0
29 0 0
29.1 0 0
29.2 0 0
29.3 0 0
29.4 0 0
29.5 0 0
29.6 0 0
29.7 0 0
29.8 0 0
29.9 0 0
30 0 0
30.1 0 0
30.2 0 0
30.3 0 0
30.4 0 0
30.5 0 0
30.6 0 0
30.7 0 0
30.8 0 0
30.9 0 0
31 0 0
31.1 0 0
31.2 0 0
31.3 0 0
31.4 0 0
31.5 0 0
31.6 0 0
31.7 0 0
31.8 0 0
31.9 0 0
32 0 0
32.1 0 0
32.2 0 0
32.3 0 0
32.4 0 0
32.5 0 0
32.6 0 0
32.7 0 0
32.8 0 0
32.9 0 0
33 0 0
33.1 0 0
33.2 0 0
33.3 0 0
33.4 0 0
33.5 0 0
33.6 0 0
33.7 0 0
33.8 0 0
33.9 0 0
34 0 0
34.1 0 0
34.2 0 0
34.3 0 0
34.4 0 0
34.5 0 0
34.6 0 0
34.7 0 0
34.8 0 0
34.9 0 0
35 0 0
35.1 0 0
35.2 0 0
35.3 0 0
35.4 0 0
35.5 0 0
35.6 0 0
35.7 0 0
35.8 0 0
35.9 0 0
36 0 0
36.1 0 0
36.2 0 0
36.3 0 0
36.4 0 0
36.5 0 0
36.6 0 0
36.7 0 0
36.8 0 0
36.9 0 0
37 0 0
37.1 0 0
37.2 0 0
37.3 0 0
37.4 0 0
37.5 0 0
37.6 0 0
37.7 0 0
37.8 0 0
37.9 0 0
38 0 0
38.1 0 0
38.2 0 0
38.3 0 0
38.4 0 0
38.5 0 0
38.6 0 0
38.7 0 0
38.8 0 0
38.9 0 0
39 0 0
39.1 0 0
39.2 0 0
39.3 0 0
39.4 0 0
39.5 0 0
39.6 0 0
39.7 0 0
39.8 0 0
39.9 0 0
40 0 0
40.1 0 0
40.2 0 0
40.3 0 0
40.4 0 0
40.5 0 0
40.6 0 0
40.7 0 0
40.8 0 0
40.9 0 0
41 0 0
41.1 0 0
41.2 0 0
41.3 0 0
41.4 0 0
41.5 0 0
41.6 0 0
41.7 0 0
41.8 0 0
41.9 0 0
42 0 0
42.1 0 0
42.2 0 0
42.3 0 0
42.4 0 0
42.5 0 0
42.6 0 0
42.7 0 0
42.8 0 0
42.9 0 0
43 0 0
43.1 0 0
43.2 0 0
43.3 0 0
43.4 0 0
43.5 0 0
43.6 0 0
43.7 0 0
43.8 0 0
43.9 0 0
44 0 0
44.1 0 0
44.2 0 0
44.3 0 0
44.4 0 0
44.5 0 0
44.6 0 0
44.7 0 0
44.8 0 0
44.9 0 0
45 0 0
45.1 0 0
45.2 0 0
45.3 0 0
45.4 0 0
45.5 0 0
45.6 0 0
45.7 0 0
45.8 0 0
45.9 0 0
46 0 0
46.1 0 0
46.2 0 0
46.3 0 0
46.4 0 0
46.5 0 0
46.6 0 0
46.7 0 0
46.8 0 0
46.9 0 0
47 0 0
47.1 0 0
47.2 0 0
47.3 0 0
47.4 0 0
47.5 0 0
47.6 0 0
47.7 0 0
47.8 0 0
47.9 0 0
48 0 0
48.1 0 0
48.2 0 0
48.3 0 0
48.4 0 0
48.5 0 0
48.6 0 0
48.7 0 0
48.8 0 0
48.9 0 0
49 0 0
49.1 0 0
49.2 0 0
49.3 0 0
49.4 0 0
49.5 0 0
49.6 0 0
49.7 0 0
49.8 0 0
49.9 0 0
50 0 0
50.1 0 0
50.2 0 0
50.3 0 0
50.4 0 0
50.5 0 0
50.6 0 0
50.7 0 0
50.8 0 0
50.9 0 0
51 0 0
51.1 0 0
51.2 0 0
51.3 0 0
51.4 0 0
51.5 0 0
51.6 0 0
51.7 0 0
51.8 0 0
51.9 0 0
52 0 0
52.1 0 0
52.2 0 0
52.3 0 0
52.4 0 0
52.5 0 0
52.6 0 0
52.7 0 0
52.8 0 0
52.9 0 0
53 0 0
53.1 0 0
53.2 0 0
53.3 0 0
53.4 0 0
53.5 0 0
53.6 0 0
53.7 0 0
53.8 0 0
53.9 0 0
54 0 0
54.1 0 0
54.2 0 0
54.3 0 0
54.4 0 0
54.5 0 0
54.6 0 0
54.7 0 0
54.8 0 0
54.9 0 0
55 0 0
55.1 0 0
55.2 0 0
55.3 0 0
55.4 0 0
55.5 0 0
55.6 0 0
55.7 0 0
55.8 0 0
55.9 0 0
56 0 0
56.1 0 0
56.2 0 0
56.3 0 0
56.4 0 0
56.5 0 0
56.6 0 0
56.7 0 0
56.8 0 0
56.9 0 0
57 0 0
57.1 0 0
57.2 0 0
57.3 0 0
57.4 0 0
57.5 0 0
57.6 0 0
57.7 0 0
57.8 0 0
57.9 0 0
58 0 0
58.1 0 0
58.2 0 0
58.3 0 0
58.4 0 0
58.5 0 0
58.6 0 0
58.7 0 0
58.8 0 0
58.9 0 0
59 0 0
59.1 0 0
59.2 0 0
59.3 0 0
59.4 0 0
59.5 0 0
59.6 0 0
59.7 0 0
59.8 0 0
59.9 0 0
60 0 0
60.1 0 0
60.2 0 0
60.3 0 0
60.4 0 0
60.5 0 0
60.6 0 0
60.7 0 0
60.8 0 0
60.9 0 0
61 0 0
61.1 0 0
61.2 0 0
61.3 0 0
61.4 0 0
61.5 0 0
61.6 0 0
61.7 0 0
61.8 0 0
61.9 0 0
62 0 0
62.1 0 0
62.2 0 0
62.3 0 0
62.4 0 0
62.5 0 0
62.6 0 0
62.7 0 0
62.8 0 0
62.9 0 0
63 0 0
63.1 0 0
63.2 0 0
63.3 0 0
63.4 0 0
63.5 0 0
63.6 0 0
63.7 0 0
63.8 0 0
63.9 0 0
64 0 0
64.1 0 0
64.2 0 0
64.3 0 0
64.4 0 0
64.5 0 0
64.6 0 0
64.7 0 0
64.8 0 0
64.9 0 0
65 0 0
65.1 0 0
65.2 0 0
65.3 0 0
65.4 0 0
65.5 0 0
65.6 0 0
65.7 0 0
65.8 0 0
65.9 0 0
66 0 0
66.1 0 0
66.2 0 0
66.3 0 0
66.4 0 0
66.5 0 0
66.6 0 0
66.7 0 0
66.8 0 0
66.9 0 0
67 0 0
67.1 0 0
67.2 0 0
67.3 0 0
67.4 0 0
67.5 0 0
67.6 0 0
67.7 0 0
67.8 0 0
67.9 0 0
68 0 0
68.1 0 0
68.2 0 0
68.3 0 0
68.4 0 0
68.5 0 0
68.6 0 0
68.7 0 0
68.8 0 0
68.9 0 0
69 0 0
69.1 0 0
69.2 0 0
69.3 0 0
69.4 0 0
69.5 0 0
69.6 0 0
69.7 0 0
69.8 0 0
69.9 0 0
70 0 0
70.1 0 0
70.2 0 0
70.3 0 0
70.4 0 0
70.5 0 0
70.6 0 0
70.7 0 0
70.8 0 0
70.9 0 0
71 0 0
71.1 0 0
71.2 0 0
71.3 0 0
71.4 0 0
71.5 0 0
71.6 0 0
71.7 0 0
71.8 0 0
71.9 0 0
72 0 0
72.1 0 0
72.2 0 0
72.3 0 0
72.4 0 0
72.5 0 0
72.6 0 0
72.7 0 0
72.8 0 0
72.9 0 0
73 0 0
73.1 0 0
73.2 0 0
73.3 0 0
73.4 0 0
73.5 0 0
73.6 0 0
73.7 0 0
73.8 0 0
73.9 0 0
74 0 0
74.1 0 0
74.2 0 0
74.3 0 0
74.4 0 0
74.5 0 0
74.6 0 0
74.7 0 0
74.8 0 0
74.9 0 0
75 0 0
75.1 0 0
75.2 0 0
75.3 0 0
75.4 0 0
75.5 0 0
75.6 0 0
75.7 0 0
75.8 0 0
75.9 0 0
76 0 0
76.1 0 0
76.2 0 0
76.3 0 0
76.4 0 0
76.5 0 0
76.6 0 0
76.7 0 0
76.8 0 0
76.9 0 0
77 0 0
77.1 0 0
77.2 0 0
77.3 0 0
77.4 0 0
77.5 0 0
77.6 0 0
77.7 0 0
77.8 0 0
77.9 0 0
78 0 0
78.1 0 0
78.2 0 0
78.3 0 0
78.4 0 0
78.5 0 0
78.6 0 0
78.7 0 0
78.8 0 0
78.9 0 0
79 0 0
79.1 0 0
79.2 0 0
79.3 0 0
79.4 0 0
79.5 0 0
79.6 0 0
79.7 0 0
79.8 0 0
79.9 0 0
80 0 0
80.1 0 0
80.2 0 0
80.3 0 0
80.4 0 0
80.5 0 0
80.6 0 0
80.7 0 0
80.8 0 0
80.9 0 0
81 0 0
81.1 0 0
81.2 0 0
81.3 0 0
81.4 0 0
81.5 0 0
81.6 0 0
81.7 0 0
81.8 0 0
81.9 0 0
82 0 0
82.1 0 0
82.2 0 0
82.3 0 0
82.4 0 0
82.5 0 0
82.6 0 0
82.7 0 0
82.8 0 0
82.9 0 0
83 0 0
83.1 0 0
83.2 0 0
83.3 0 0
83.4 0 0
83.5 0 0
83.6 0 0
83.7 0 0
83.8 0 0
83.9 0 0
84 0 0
84.1 0 0
84.2 0 0
84.3 0 0
84.4 0 0
84.5 0 0
84.6 0 0
84.7 0 0
84.8 0 0
84.9 0 0
85 0 0
85.1 0 0
85.2 0 0
85.3 0 0
85.4 0 0
85.5 0 0
85.6 0 0
85.7 0 0
85.8 0 0
85.9 0 0
86 0 0
86.1 0 0
86.2 0 0
86.3 0 0
86.4 0 0
86.5 0 0
86.6 0 0
86.7 0 0
86.8 0 0
86.9 0 0
87 0 0
87.1 0 0
87.2 0 0
87.3 0 0
87.4 0 0
87.5 0 0
87.6 0 0
87.7 0 0
87.8 0 0
87.9 0 0
88 0 0
88.1 0 0
88.2 0 0
88.3 0 0
88.4 0 0
88.5 0 0
88.6 0 0
88.7 0 0
88.8 0 0
88.9 0 0
89 0 0
89.1 0 0
89.2 0 0
89.3 0 0
89.4 0 0
89.5 0 0
89.6 0 0
89.7 0 0
89.8 0 0
89.9 0 0
90 0 0
90.1 0 0
90.2 0 0
90.3 0 0
90.4 0 0
90.5 0 0
90.6 0 0
90.7 0 0
90.8 0 0
90.9 0 0
91 0 0
91.1 0 0
91.2 0 0
91.3 0 0
91.4 0 0
91.5 0 0
91.6 0 0
91.7 0 0
91.8 0 0
91.9 0 0
92 0 0
92.1 0 0
92.2 0 0
92.3 0 0
92.4 0 0
92.5 0 0
92.6 0 0
92.7 0 0
92.8 0 0
92.9 0 0
93 0 0
93.1 0 0
93.2 0 0
93.3 0 0
93.4 0 0
93.5 0 0
93.6 0 0
93.7 0 0
93.8 0 0
93.9 0 0
94 0 0
94.1 0 0
94.2 0 0
94.3 0 0
94.4 0 0
94.5 0 0
94.6 0 0
94.7 0 0
94.8 0 0
94.9 0 0
95 0 0
95.1 0 0
95.2 0 0
95.3 0 0
95.4 0 0
95.5 0 0
95.6 0 0
95.7 0 0
95.8 0 0
95.9 0 0
96 0 0
96.1 0 0
96.2 0 0
96.3 0 0
96.4 0 0
96.5 0 0
96.6 0 0
96.7 0 0
96.8 0 0
96.9 0 0
97 0 0
97.1 0 0
97.2 0 0
97.3 0 0
97.4 0 0
97.5 0 0
97.6 0 0
97.7 0 0
97.8 0 0
97.9 0 0
98 0 0
98.1 0 0
98.2 0 0
98.3 0 0
98.4 0 0
98.5 0 0
98.6 0 0
98.7 0 0
98.8 0 0
98.9 0 0
99 0 0
99.1 0 0
99.2 0 0
99.3 0 0
99.4 0 0
99.5 0 0
99.6 0 0
99.7 0 0
99.8 0 0
99.9 0 0
100 0 0
100.1 0 0
100.2 0 0
100.3 0 0
100.4 0 0
100.5 0 0
100.6 0 0
100.7 0 0
100.8 0 0
100.9 0 0
101 0 0
101.1 0 0
101.2 0 0
101.3 0 0
101.4 0 0
101.5 0 0
101.6 0 0
101.7 0 0
101.8 0 0
101.9 0 0
102 0 0
102.1 0 0
102.2 0 0
102.3 0 0
102.4 0 0
102.5 0 0
102.6 0 0
102.7 0 0
102.8 0 0
102.9 0 0
103 0 0
103.1 0 0
103.2 0 0
103.3 0 0
103.4 0 0
103.5 0 0
103.6 0 0
103.7 0 0
103.8 0 0
103.9 0 0
104 0 0
104.1 0 0
104.2 0 0
104.3 0 0
104.4 0 0
104.5 0 0
104.6 0 0
104.7 0 0
104.8 0 0
104.9 0 0
105 0 0
105.1 0 0
105.2 0 0
105.3 0 0
105.4 0 0
105.5 0 0
105.6 0 0
105.7 0 0
105.8 0 0
105.9 0 0
106 0 0
106.1 0 0
106.2 0 0
106.3 0 0
106.4 0 0
106.5 0 0
106.6 0 0
106.7 0 0
106.8 0 0
106.9 0 0
107 0 0
107.1 0 0
107.2 0 0
107.3 0 0
107.4 0 0
107.5 0 0
107.6 0 0
107.7 0 0
107.8 0 0
107.9 0 0
108 0 0
108.1 0 0
108.2 0 0
108.3 0 0
108.4 0 0
108.5 0 0
108.6 0 0
108.7 0 0
108.8 0 0
108.9 0 0
109 0 0
109.1 0 0
109.2 0 0
109.3 0 0
109.4 0 0
109.5 0 0
109.6 0 0
109.7 0 0
109.8 0 0
109.9 0 0
110 0 0
110.1 0 0
110.2 0 0
110.3 0 0
110.4 0 0
110.5 0 0
110.6 0 0
110.7 0 0
110.8 0 0
110.9 0 0
111 0 0
111.1 0 0
111.2 0 0
111.3 0 0
111.4 0 0
111.5 0 0
111.6 0 0
111.7 0 0
111.8 0 0
111.9 0 0
112 0 0
[...]
POINT_DATA 83304

SCALARS pressure float 1
LOOKUP_TABLE default
0
0
0
0
0
0
0
0
0
0
0
0
0
0
0
0
0
0
0
0
0
0
0
0
0
0
0
0
0
0
0
0
0
0
0
0
0
0
0
0
0
0
0
0
0
0
0
0
0
0
0
0
0
0
0
0
0
0
0
0
0
0
0
0
0
0
0
0
0
0
0
0
0
0
0
0
0
0
0
0
0
0
0
0
0
0
0
0
0
0
0
0
0
0
0
0
0
0
0
0
0
0
0
0
0
0
0
0
0
0
0
0
0
0
0
0
0
0
0
0
0
0
0
0
0
0
0
0
0
0
0
0
0
0
0
0
0
0
0
0
0
0
0
0
0
0
0
0
0
0
0
0
0
0
0
0
0
0
0
0
0
0
0
0
0
0
0
0
0
0
0
0
0
0
0
0
0
0
0
0
0
0
0
0
0
0
0
0
0
0
0
0
0
0
0
0
0
0
0
0
0
0
0
0
0
0
0
0
0
0
0
0
0
0
0
0
0
0
0
0
0
0
0
0
0
0
0
0
0
0
0
0
0
0
0
0
0
0
0
0
0
0
0
0
0
0
0
0
0
0
0
0
0
0
0
0
0
0
0
0
0
0
0
0
0
0
0
0
0
0
0
0
0
0
0
0
0
0
0
0
0
0
0
0
0
0
0
0
0
0
0
0
0
0
0
0
0
0
0
0
0
0
0
0
0
0
0
0
0
0
0
0
0
0
0
0
0
0
0
0
0
0
0
0
0
0
0
0
0
0
0
0
0
0
0
0
0
0
0
0
0
0
0
0
0
0
0
0
0
0
0
0
0
0
0
0
0
0
0
0
0
0
0
0
0
0
0
0
0
0
0
0
0
0
0
0
0
0
0
0
0
0
0
0
0
0
0
0
0
0
0
0
0
0
0
0
0
0
0
0
0
0
0
0
0
0
0
0
0
0
0
0
0
0
0
0
0
0
0
0
0
0
0
0
0
0
0
0
0
0
0
0
0
0
0
0
0
0
0
0
0
0
0
0
0
0
0
0
0
0
0
0
0
0
0
0
0
0
0
0
0
0
0
0
0
0
0
0
0
0
0
0
0
0
0
0
0
0
0
0
0
0
0
0
0
0
0
0
0
0
0
0
0
0
0
0
0
0
0
0
0
0
0
0
0
0
0
0
0
0
0
0
0
0
0
0
0
0
0
0
0
0
0
0
0
0
0
0
0
0
0
0
0
0
0
0
0
0
0
0
0
0
0
0
0
0
0
0
0
0
0
0
0
0
0
0
0
0
0
0
0
0
0
0
0
0
0
0
0
0
0
0
0
0
0
0
0
0
0
0
0
0
0
0
0
0
0
0
0
0
0
0
0
0
0
0
0
0
0
0
0
0
0
0
0
0
0
0
0
0
0
0
0
0
0
0
0
0
0
0
0
0
0
0
0
0
0
0
0
0
0
0
0
0
0
0
0
0
0
0
0
0
0
0
0
0
0
0
0
0
0
0
0
0
0
0
0
0
0
0
0
0
0
0
0
0
0
0
0
0
0
0
0
0
0
0
0
0
0
0
0
0
0
0
0
0
0
0
0
0
0
0
0
0
0
0
0
0
0
0
0
0
0
0
0
0
0
0
0
0
0
0
0
0
0
0
0
0
0
0
0
0
0
0
0
0
0
0
0
0
0
0
0
0
0
0
0
0
0
0
0
0
0
0
0
0
0
0
0
0
0
0
0
0
0
0
0
0
0
0
0
0
0
0
0
0
0
0
0
0
0
0
0
0
0
0
0
0
0
0
0
0
0
0
0
0
0
0
0
0
0
0
0
0
0
0
0
0
0
0
0
0
0
0
0
0
0
0
0
0
0
0
0
0
0
0
0
0
0
0
0
0
0
0
0
0
0
0
0
0
0
0
0
0
0
0
0
0
0
0
0
0
0
0
0
0
0
0
0
0
0
0
0
0
0
0
0
0
0
0
0
0
0
0
0
0
0
0
0
0
0
0
0
0
0
0
0
0
0
0
0
0
0
0
0
0
0
0
0
0
0
0
0
0
0
0
0
0
0
0
0
0
0
0
0
0
0
0
0
0
0
0
0
0
0
0
0
0
0
0
0
0
0
0
0
0
0
0
0
0
0
0
0
0
0
0
0
0
0
0
0
0
0
0
0
0
0
0
0
0
0
0
0
0
0
0
0
0
0
0
0
0
0
0
0
0
0
0
0
0
0
0
0
0
0
0
0
0
0
0
0
0
0
0
0
0
0
0
0
0
0
0
0
0
0
0
0
0
0
0
0
0
0
0
0
0
0
0
0
0
0
0
0
0
0
0
0
0
0
0
0
0
0
0
0
0
0
0
0
0
0
0
0
0
0
0
0
0
0
0
0
0
0
0
0
0
0
0
0
0
0
0
0
0
0
0
0
0
0
0
0
0
0
0
0
0
0
0
0
0
0
0
0
0
0
0
0
0
0
0
0
0
0
0
0
0
0
0
0
0
0
0
0
0
0
0
0
0
0
0
0
0
0
0
0
0
0
0
0
0
0
0
0
0
0
0
0
0
0
0
0
0
0
0
0
0
0
0
0
0
0
0
0
0
0
0
0
0
0
0
0
0
0
0
0
0
0
0
0
0
0
0
0
0
0
0
0
0
0
0
0
0
0
0
0
0
0
0
0
0
0
0
0
0
0
0
0
0
0
0
0
0
0
0
0
0
0
0
0
0
0
0
0
0
0
0
0
0
0
0
0
0
0
0
0
0
0
0
0
0
0
0
0
0
0
0
0
0
0
0
0
0
0
0
0
0
0
0
0
0
0
0
0
0
0
0
0
0
0
0
0
0
0
0
0
0
0
0
0
0
0
0
0
0
0
0
0
0
0
0
0
0
0
0
0
0
0
0
0
0
0
0
0
0
0
0
0
0
0
0
0
0
0
0
0
0
0
0
0
0
0
0
0
0
0
0
0
0
0
0
0
0
0
0
0
0
0
0
0
0
0
0
0
0
0
0
0
0
0
0
0
0
0
0
0
0
0
0
0
0
0
0
0
0
0
0
0
0
0
0
0
0
0
0
0
0
0
0
0
0
0
0
0
0
0
0
0
0
0
0
0
0
0
0
0
0
0
0
0
0
0
0
0
0
0
0
0
0
0
0
0
0
0
0
0
0
0
0
0
0
0
0
0
0
0
0
0
0
0
0
0
0
0
0
0
0
0
0
0
0
0
0
0
0
0
0
0
0
0
0
0
0
0
0
0
0
0
0
0
0
0
0
0
0
0
0
0
0
0
0
0
0
0
0
0
0
0
0
0
0
0
0
0
0
0
0
0
0
0
0
0
0
0
0
0
0
0
0
0
0
0
0
0
0
0
0
0
0
0
0
0
0
0
0
0
0
0
0
0
0
0
0
0
0
0
0
0
0
0
0
0
0
0
0
0
0
0
0
0
0
0
0
0
0
0
0
0
0
0
0
0
0
0
0
0
0
0
0
0
0
0
0
0
0
0
0
0
0
0
0
0
0
0
0
0
0
0
0
0
0
0
0
0
0
0
0
0
0
0
0
0
0
0
0
0
0
0
0
0
0
0
0
0
0
0
0
0
0
0
0
0
0
0
0
0
0
0
0
0
0
0
0
0
0
0
0
0
0
0
0
0
0
0
0.0781586
0.0534532
0.0446079
0.036961
0.0318805
0.0287006
0.0267298
0.0255363
0.0250324
0.0254699
0.0270964
0.0300455
0.0344208
0.0402971
0.0475491
0.0558292
0.0648475
0.0743764
0.0841405
0.0938604
0.103288
0.112235
0.120574
0.128144
0.134592
0.139511
0.142597
0.143603
0.142394
0.139005
0.133525
0.126132
0.117232
0.107343
0.0969178
0.0864017
0.0762569
0.0667829
0.0580366
0.0500282
0.0428866
0.0367354
0.0314852
0.0268773
0.0227585
0.0192529
0.0166039
0.014828
0.0135231
0.0120305
0.00984733
0.00697471
0.0039312
0.0014358
1.51254e-05
-0.000215448
0.00046789
0.00157026
0.0025874
0.00316805
0.00318758
0.00272803
0.00199336
0.00120832
0.000543375
8.39893e-05
-0.000161964
-0.000236726
-0.000202327
-0.000117685
-2.6309e-05
4.67879e-05
9.23265e-05
0.000111522
0.000110836
9.8018e-05
7.97807e-05
6.08659e-05
4.40167e-05
3.04034e-05
2.01676e-05
1.29003e-05
7.98283e-06
4.79121e-06
2.79507e-06
1.58773e-06
8.79546e-07
4.75789e-07
2.5162e-07
1.30226e-07
6.6018e-08
3.28094e-08
1.59966e-08
7.65666e-09
3.60001e-09
1.66366e-09
7.56045e-10
3.38037e-10
1.48767e-10
6.44705e-11
2.75228e-11
1.15788e-11
4.80196e-12
1.96382e-12
7.9222e-13
3.15337e-13
1.23882e-13
4.80462e-14
1.84007e-14
6.96038e-15
2.60108e-15
9.60486e-16
3.50534e-16
1.26461e-16
4.51077e-17
1.59107e-17
5.5507e-18
1.91556e-18
6.54039e-19
2.20971e-19
7.38846e-20
2.44523e-20
8.01113e-21
2.59854e-21
8.34611e-22
2.65465e-22
8.36282e-23
2.60956e-23
8.06677e-24
2.47056e-24
7.4972e-25
2.25452e-25
6.71896e-26
1.98465e-26
5.81081e-27
1.68656e-27
4.85305e-28
1.38456e-28
3.91678e-29
1.09875e-29
3.05673e-30
8.434e-31
2.30814e-31
6.26571e-32
1.6873e-32
4.50769e-33
1.19477e-33
3.14206e-34
8.19915e-35
2.12312e-35
5.45581e-36
1.39138e-36
3.52178e-37
8.8477e-38
2.20636e-38
5.46162e-39
1.34212e-39
3.27421e-40
7.93031e-41
1.90706e-41
4.55354e-42
1.07961e-42
2.54177e-43
5.94265e-44
1.3798e-44
3.18175e-45
7.28696e-46
1.65759e-46
3.74523e-47
8.40557e-48
1.87396e-48
4.15029e-49
9.13138e-50
1.99596e-50
4.33455e-51
9.35247e-52
2.00501e-52
4.27102e-53
9.04037e-54
1.9015e-54
3.97447e-55
8.25558e-56
1.70419e-56
3.49627e-57
7.12893e-58
1.44474e-58
2.91014e-59
5.82656e-60
1.15958e-60
2.29398e-61
4.51122e-62
8.81919e-63
1.71398e-63
3.31159e-64
6.36116e-65
1.21484e-65
2.30671e-66
4.35486e-67
8.17473e-68
1.52582e-68
2.83189e-69
5.22642e-70
9.59175e-71
1.75053e-71
3.1771e-72
5.73447e-73
1.02936e-73
1.83766e-74
3.26284e-75
5.76199e-76
1.01206e-76
1.76809e-77
3.07241e-78
5.31058e-79
9.13066e-80
1.5616e-80
2.65678e-81
4.49645e-82
7.57043e-83
1.268e-83
2.11288e-84
3.50265e-85
5.7769e-86
9.47934e-87
1.54759e-87
2.51384e-88
4.06287e-89
6.53354e-90
1.04543e-90
1.6645e-91
2.63704e-92
4.15728e-93
6.52177e-94
1.01811e-94
1.58165e-95
2.44519e-96
3.76197e-97
5.76001e-98
8.77702e-99
1.33105e-99
2.00896e-100
3.01777e-101
4.51179e-102
6.71374e-103
9.94357e-104
1.46585e-104
2.15086e-105
3.14137e-106
4.56686e-107
6.60867e-108
9.51955e-109
1.365e-109
1.94835e-110
2.7684e-111
3.91583e-112
5.51392e-113
7.72937e-114
1.07865e-114
1.49858e-115
2.07275e-116
2.85421e-117
3.91297e-118
5.3409e-119
7.25796e-120
9.82008e-121
1.32288e-121
1.77435e-122
2.36961e-123
3.15092e-124
4.17185e-125
5.49992e-126
7.21982e-127
9.43723e-128
1.22834e-128
1.59202e-129
2.0547e-130
2.64069e-131
3.37959e-132
4.30718e-133
5.46651e-134
6.90909e-135
8.69622e-136
1.09005e-136
1.36072e-137
1.69165e-138
2.09445e-139
2.58259e-140
3.17156e-141
3.87905e-142
4.72519e-143
5.7327e-144
6.92709e-145
8.33679e-146
9.99327e-147
1.19312e-147
1.41883e-148
1.68055e-149
1.98268e-150
2.32992e-151
2.72721e-152
3.17973e-153
3.69285e-154
4.27205e-155
4.92289e-156
5.65089e-157
6.46147e-158
7.35982e-159
8.35082e-160
9.43891e-161
1.0628e-161
1.19211e-162
1.33207e-163
1.48281e-164
1.64436e-165
1.81661e-166
1.99935e-167
2.1922e-168
2.39464e-169
2.60598e-170
2.8254e-171
3.05189e-172
3.2843e-173
3.52132e-174
3.76148e-175
4.00322e-176
4.24482e-177
4.4845e-178
4.72036e-179
4.95049e-180
5.17292e-181
5.3857e-182
5.58689e-183
5.77464e-184
5.94715e-185
6.10275e-186
6.23993e-187
6.35731e-188
6.45373e-189
6.52822e-190
6.58006e-191
6.60874e-192
6.61401e-193
6.59587e-194
6.55455e-195
6.49054e-196
6.40456e-197
6.29756e-198
6.17066e-199
6.0252e-200
5.86267e-201
5.68467e-202
5.49294e-203
5.28929e-204
5.07559e-205
4.85371e-206
4.62555e-207
4.39297e-208
4.15778e-209
3.92171e-210
3.68641e-211
3.45341e-212
3.22413e-213
2.99986e-214
2.78172e-215
2.57072e-216
2.36771e-217
2.17338e-218
1.98829e-219
1.81285e-220
1.64736e-221
1.49197e-222
1.34672e-223
1.21157e-224
1.08635e-225
9.70839e-227
8.64736e-228
7.67681e-229
6.79269e-230
5.99057e-231
5.26579e-232
4.6135e-233
4.02876e-234
3.50661e-235
3.04216e-236
2.63062e-237
2.26735e-238
1.94789e-239
1.66801e-240
1.42371e-241
1.21127e-242
1.02719e-243
8.68285e-245
7.31598e-246
6.14448e-247
5.14402e-248
4.29266e-249
3.57075e-250
2.96076e-251
2.44715e-252
2.0162e-253
1.65587e-254
1.35561e-255
1.10629e-256
8.99966e-258
7.29809e-259
5.89958e-260
4.75404e-261
3.81889e-262
3.05807e-263
2.44114e-264
1.94257e-265
1.54099e-266
1.21862e-267
9.60682e-269
7.54984e-270
5.91486e-271
4.61956e-272
3.59674e-273
2.79172e-274
2.16018e-275
1.66635e-276
1.28145e-277
9.82428e-279
7.50864e-280
5.72119e-281
4.34589e-282
3.29109e-283
2.48468e-284
1.87014e-285
1.4033e-286
1.04979e-287
7.8295e-289
5.82161e-290
4.31551e-291
3.18936e-292
2.34995e-293
1.72623e-294
1.26423e-295
9.2309e-297
6.71971e-298
4.87696e-299
3.52892e-300
2.54582e-301
1.8311e-302
1.31309e-303
9.38803e-305
6.69201e-306
4.75599e-307
3.37e-308
2.38081e-309
1.67697e-310
1.1777e-311
8.24619e-313
5.75684e-314
4.00707e-315
2.78089e-316
1.92422e-317
1.32753e-318
9.13182e-320
6.26475e-321
4.24896e-322
2.96439e-323
0
0
0
0
0
0
0
0
0
0
0
0
0
0
0
0
0
0
0
0
0
0
0
0
0
0
0
0
0
0
0
0
0
0
0
0
0
0
0
0
0
0
0
0
0
0
0
0
0
0
0
0
0
0
0
0
0
0
0
0
0
0
0
0
0
0
0
0
0
0
0
0
0
0
0
0
0
0
0
0
0
0
0
0
0
0
0
0
0
0
0
0
0
0
0
0
0
0
0
0
0
0
0
0
0
0
0
0
0
0
0
0
0
0
0
0
0
0
0
0
0
0
0
0
0
0
0
0
0
0
0
0
0
0
0
0
0
0
0
0
0
0
0
0
0
0
0
0
0
0
0
0
0
0
0
0
0
0
0
0
0
0
0
0
0
0
0
0
0
0
0
0
0
0
0
0
0
0
0
0
0
0
0
0
0
0
0
0
0
0
0
0
0
0
0
0
0
0
0
0
0
0
0
0
0
0
0
0
0
0
0
0
0
0
0
0
0
0
0
0
0
0
0
0
0
0
0
0
0
0
0
0
0
0
0
0
0
0
0
0
0
0
0
0
0
0
0
0
0
0
0
0
0
0
0
0
0
0
0
0
0
0
0
0
0
0
0
0
0
0
0
0
0
0
0
0
0
0
0
0
0
0
0
0
0
0
0
0
0
0
0
0
0
0
0
0
0
0
0
0
0
0
0
0
0
0
0
0
0
0
0
0
0
0
0
0
0
0
0
0
0
0
0
0
0
0
0
0
0
0
0
0
0
0
0
0
0
0
0
0
0
0
0
0
0
0
0
0
0
0
0
0
0
0
0
0
0
0
0
0
0
0
0
0
0
0
0
0
0
0
0
0
0
0
0
0
0
0
0
0
0
0
0
0
0
0
0
0
0
0
0
0
0
0
0
0
0
0
0
0
0
0
0
0
0
0
0
0
0
0
0
0
0
0
0
0
0
0
0
0
0
0
0
0
0
0
0
0
0
0
0
0
0
0
0
0
0
0
0
0
0
0
0
0
0
0
0
0
0
0
0
0
0
0
0
0
0
0
0
0
0
0
0
0
0
0
0
0
0
0
0
0
0
0
0
0
0
0
0
0
0
0
0
0
0
0
0
0
0
0
0
0
0
0
0
0
0
0
0
0
0
0
0
0
0
0
0
0
0
0
0
0
0
0
0
0
0
0
0
0
0
0
0
0
0
0
0
0
0
0
0
0
0
0
0
0
0
0
0
0
0
0
0
0
0
0
0
0
0
0
0
0
0
0
0
0
0
0
0
0
0
0
0
0
0
0
0
0
0
0
0
0
0
0
0
0
0
0
0
0
0
0
0
0
0
0
0
0
0
0
0
0
0
0
0
0
0
0
0
0
0
0
0
0
0
0
0
0
0
0
0
0
0
0
0
0
0
0
0
0
0
0
0
0
0
0
0
0
0
0
0
0
0
0
0
0
0
0
0
0
0
0
0
0
0
0
0
0
0
0
0
0
0
0
0
0
0
0
0
0
0
0
0
0
0
0
0
0
0
0
0
0
0
0
0
0
0
0
0
0
0
0
0
0
0
0
0
0
0
0
0
0
0
0
0
0
0
0
0
0
0
0
0
0
0
0
0
0
0
0
0
0
0
0
0
0
0
0
0
0
0
0
0
0
0
0
0
0
0
0
0
0
0
0
0
0
0
0
0
0
0
0
0
0
0
0
0
0
0
0
0
0
0
0
0
0
0
0
0
0
0
0
0
0
0
0
0
0
0
0
0
0
0
0
0
0
0
0
0
0
0
0
0
0
0
0
0
0
0
0
0
0
0
0
0
0
0
0
0
0
0
0
0
0
0
0
0
0
0
0
0
0
0
0
0
0
0
0
0
0
0
0
0
0
0
0
0
0
0
0
0
0
0
0
0
0
0
0
0
0
0
0
0
0
0
0
0
0
0
0
0
0
0
0
0
0
0
0
0
0
0
0
0
0
0
0
0
0
0
0
0
0
0
0
0
0
0
0
0
0
0
0
0
0
0
0
0
0
0
0
0
0
0
0
0
0
0
0
0
0
0
0
0
0
0
0
0
0
0
0
0
0
0
0
0
0
0
0
0
0
0
0
0
0
0
0
0
0
0
0
0
0
0
0
0
0
0
0
0
0
0
0
0
0
0
0
0
0
0
0
0
0
0
0
0
0
0
0
0
0
0
0
0
0
0
0
0
0
0
0
0
0
0
0
0
0
0
0
0
0
0
0
0
0
0
0
0
0
0
0
0
0
0
0
0
0
0
0
0
0
0
0
0
0
0
0
0
0
0
0
0
0
0
0
0
0
0
0
0
0
0
0
0
0
0
0
0
0
0
0
0
0
0
0
0
0
0
0
0
0
0
0
0
0
0
0
0
0
0
0
0
0
0
0
0
0
0
0
0
0
0
0
0
0
0
0
0
0
0
0
0
0
0
0
0
0
0
0
0
0
0
0
0
0
0
0
0
0
0
0
0
0
0
0
0
0
0
0
0
0
0
0
0
0
0
0
0
0
0
0
0
0
0
0
0
0
0
0
0
0
0
0
0
0
0
0
0
0
0
0
0
0
0
0
0
0
0
0
0
0
0.0634147
0.0349747
0.0306294
0.0260744
0.0230252
0.0209629
0.0196169
0.0187937
0.0184086
0.0186818
0.0198703
0.0220739
0.0253257
0.0296719
0.0350233
0.0410661
0.0474953
0.0541183
0.0607294
0.0670916
0.0730362
0.0784683
0.0833297
0.0875623
0.091008
0.0934867
0.0949011
0.0951625
0.094212
0.0921048
0.0889156
0.0847016
0.0796308
0.0739496
0.0678247
0.0614091
0.0549792
0.048806
0.0429643
0.0374328
0.0323184
0.0278239
0.0239984
0.0206469
0.0175528
0.0147543
0.012537
0.0111253
0.0103695
0.00972462
0.00856888
0.00662451
0.00414853
0.00175809
6.12164e-05
-0.000633095
-0.000391146
0.000445009
0.00143159
0.00218811
0.00250312
0.00235873
0.00188271
0.00126369
0.000672621
0.000217792
-6.30961e-05
-0.000186139
-0.000195798
-0.000142412
-6.78338e-05
4.96709e-07
4.92898e-05
7.58589e-05
8.37102e-05
7.87817e-05
6.69462e-05
5.27654e-05
3.91666e-05
2.76468e-05
1.86831e-05
1.21466e-05
7.62585e-06
4.63695e-06
2.73734e-06
1.57196e-06
8.79629e-07
4.80317e-07
2.56254e-07
1.33722e-07
6.83206e-08
3.42051e-08
1.67943e-08
8.09231e-09
3.82917e-09
1.78039e-09
8.13843e-10
3.65931e-10
1.61918e-10
7.05364e-11
3.02644e-11
1.27943e-11
5.33114e-12
2.19022e-12
8.87472e-13
3.54774e-13
1.39959e-13
5.45026e-14
2.09561e-14
7.95766e-15
2.98497e-15
1.10629e-15
4.05196e-16
1.46694e-16
5.25038e-17
1.85816e-17
6.50375e-18
2.25167e-18
7.71216e-19
2.61363e-19
8.76543e-20
2.90955e-20
9.56007e-21
3.10982e-21
1.00163e-21
3.19467e-22
1.00912e-22
3.15729e-23
9.78549e-24
3.00466e-24
9.14111e-25
2.75573e-25
8.23283e-26
2.4377e-26
7.15431e-27
2.08138e-27
6.00301e-28
1.71655e-28
4.86687e-29
1.3683e-29
3.81496e-30
1.05488e-30
2.89305e-31
7.87006e-32
2.12373e-32
5.68528e-33
1.50995e-33
3.97887e-34
1.04033e-34
2.69914e-35
6.94938e-36
1.77566e-36
4.50292e-37
1.13337e-37
2.8315e-38
7.02187e-39
1.72864e-39
4.22466e-40
1.02504e-40
2.46928e-41
5.90615e-42
1.40269e-42
3.308e-43
7.74702e-44
1.80173e-44
4.16149e-45
9.54627e-46
2.17501e-46
4.92213e-47
1.10643e-47
2.47056e-48
5.48002e-49
1.20755e-49
2.64349e-50
5.74935e-51
1.24236e-51
2.66732e-52
5.69015e-53
1.20616e-53
2.54061e-54
5.31785e-55
1.10615e-55
2.28661e-56
4.69763e-57
9.59162e-58
1.94646e-58
3.92604e-59
7.87107e-60
1.56854e-60
3.10709e-61
6.11821e-62
1.19762e-62
2.3305e-63
4.5085e-64
8.67119e-65
1.65807e-65
3.1522e-66
5.95838e-67
1.11984e-67
2.09272e-68
3.8887e-69
7.18537e-70
1.32025e-70
2.41232e-71
4.3833e-72
7.9207e-73
1.42343e-73
2.54405e-74
4.52216e-75
7.9948e-76
1.40579e-76
2.45866e-77
4.2771e-78
7.40087e-79
1.27383e-79
2.18094e-80
3.71441e-81
6.29306e-82
1.06064e-82
1.77835e-83
2.96634e-84
4.92252e-85
8.12694e-86
1.3349e-86
2.18154e-87
3.54713e-88
5.73853e-89
9.23728e-90
1.4795e-90
2.35788e-91
3.73917e-92
5.9004e-93
9.26512e-94
1.44774e-94
2.25118e-95
3.48352e-96
5.36442e-97
8.22111e-98
1.25386e-98
1.90323e-99
2.87514e-100
4.32279e-101
6.46863e-102
9.63412e-103
1.42814e-103
2.10716e-104
3.09454e-105
4.52353e-106
6.58185e-107
9.53267e-108
1.37431e-108
1.97226e-109
2.8175e-110
4.00669e-111
5.67205e-112
7.99342e-113
1.12143e-113
1.56625e-114
2.17776e-115
3.01456e-116
4.15441e-117
5.69999e-118
7.78617e-119
1.05892e-119
1.43385e-120
1.93306e-121
2.59476e-122
3.4679e-123
4.61486e-124
6.11474e-125
8.06738e-126
1.05981e-126
1.38634e-127
1.80577e-128
2.34215e-129
3.02504e-130
3.8906e-131
4.98285e-132
6.35506e-133
8.07138e-134
1.02086e-134
1.28584e-135
1.6129e-136
2.01482e-137
2.50656e-138
3.10556e-139
3.832e-140
4.70912e-141
5.76354e-142
7.02552e-143
8.52928e-144
1.03133e-144
1.24204e-145
1.48982e-146
1.7799e-147
2.11801e-148
2.51035e-149
2.9636e-150
3.48489e-151
4.08176e-152
4.7621e-153
5.53411e-154
6.40618e-155
7.38683e-156
8.48454e-157
9.70767e-158
1.10642e-158
1.25619e-159
1.42074e-160
1.6007e-161
1.79657e-162
2.00872e-163
2.23738e-164
2.48264e-165
2.74436e-166
3.02223e-167
3.31571e-168
3.62405e-169
3.94623e-170
4.28101e-171
4.6269e-172
4.98214e-173
5.34478e-174
5.71261e-175
6.08323e-176
6.45406e-177
6.82236e-178
7.18526e-179
7.53981e-180
7.88301e-181
8.21185e-182
8.52338e-183
8.81469e-184
9.08304e-185
9.32582e-186
9.54066e-187
9.72544e-188
9.8783e-189
9.99774e-190
1.00826e-190
1.01319e-191
1.01454e-192
1.0123e-193
1.00649e-194
9.97187e-196
9.84496e-197
9.68554e-198
9.49532e-199
9.27631e-200
9.03073e-201
8.76106e-202
8.46992e-203
8.16007e-204
7.83436e-205
7.49569e-206
7.14695e-207
6.791e-208
6.43064e-209
6.06856e-210
5.70728e-211
5.34921e-212
4.99653e-213
4.65125e-214
4.31515e-215
3.98978e-216
3.67649e-217
3.37637e-218
3.09032e-219
2.81901e-220
2.56289e-221
2.32225e-222
2.09717e-223
1.88759e-224
1.69331e-225
1.51397e-226
1.34914e-227
1.19828e-228
1.06077e-229
9.35942e-231
8.23086e-232
7.21459e-233
6.30306e-234
5.48866e-235
4.76387e-236
4.12129e-237
3.55377e-238
3.05443e-239
2.61673e-240
2.23449e-241
1.90191e-242
1.6136e-243
1.36458e-244
1.15027e-245
9.66508e-247
8.09494e-248
6.75815e-249
5.62406e-250
4.66534e-251
3.8577e-252
3.17973e-253
2.61257e-254
2.13976e-255
1.74696e-256
1.42176e-257
1.15344e-258
9.32804e-260
7.51997e-261
6.04329e-262
4.84134e-263
3.86628e-264
3.07793e-265
2.44266e-266
1.93246e-267
1.52406e-268
1.19823e-269
9.39128e-271
7.33769e-272
5.71539e-273
4.43798e-274
3.43543e-275
2.65114e-276
2.0396e-277
1.56429e-278
1.19606e-279
9.117e-281
6.92816e-282
5.2487e-283
3.9642e-284
2.98491e-285
2.24068e-286
1.67689e-287
1.25114e-288
9.30644e-290
6.90148e-291
5.1025e-292
3.76103e-293
2.76386e-294
2.02494e-295
1.4791e-296
1.07713e-297
7.82052e-299
5.66101e-300
4.08551e-301
2.93965e-302
2.10883e-303
1.5083e-304
1.07556e-305
7.64684e-307
5.42043e-308
3.83081e-309
2.69932e-310
1.89638e-311
1.32833e-312
9.27679e-314
6.45954e-315
4.48455e-316
3.10421e-317
2.1424e-318
1.47424e-319
1.01185e-320
6.86751e-322
4.44659e-323
0
0
0
0
0
0
0
0
0
0
0
0
0
0
0
0
0
0
0
0
0
0
0
0
0
0
0
0
0
0
0
0
0
0
0
0
0
0
0
0
0
0
0
0
0
0
0
0
0
0
0
0
0
0
0
0
0
0
0
0
0
0
0
0
0
0
0
0
0
0
0
0
0
0
0
0
0
0
0
0
0
0
0
0
0
0
0
0
0
0
0
0
0
0
0
0
0
0
0
0
0
0
0
0
0
0
0
0
0
0
0
0
0
0
0
0
0
0
0
0
0
0
0
0
0
0
0
0
0
0
0
0
0
0
0
0
0
0
0
0
0
0
0
0
0
0
0
0
0
0
0
0
0
0
0
0
0
0
0
0
0
0
0
0
0
0
0
0
0
0
0
0
0
0
0
0
0
0
0
0
0
0
0
0
0
0
0
0
0
0
0
0
0
0
0
0
0
0
0
0
0
0
0
0
0
0
0
0
0
0
0
0
0
0
0
0
0
0
0
0
0
0
0
0
0
0
0
0
0
0
0
0
0
0
0
0
0
0
0
0
0
0
0
0
0
0
0
0
0
0
0
0
0
0
0
0
0
0
0
0
0
0
0
0
0
0
0
0
0
0
0
0
0
0
0
0
0
0
0
0
0
0
0
0
0
0
0
0
0
0
0
0
0
0
0
0
0
0
0
0
0
0
0
0
0
0
0
0
0
0
0
0
0
0
0
0
0
0
0
0
0
0
0
0
0
0
0
0
0
0
0
0
0
0
0
0
0
0
0
0
0
0
0
0
0
0
0
0
0
0
0
0
0
0
0
0
0
0
0
0
0
0
0
0
0
0
0
0
0
0
0
0
0
0
0
0
0
0
0
0
0
0
0
0
0
0
0
0
0
0
0
0
0
0
0
0
0
0
0
0
0
0
0
0
0
0
0
0
0
0
0
0
0
0
0
0
0
0
0
0
0
0
0
0
0
0
0
0
0
0
0
0
0
0
0
0
0
0
0
0
0
0
0
0
0
0
0
0
0
0
0
0
0
0
0
0
0
0
0
0
0
0
0
0
0
0
0
0
0
0
0
0
0
0
0
0
0
0
0
0
0
0
0
0
0
0
0
0
0
0
0
0
0
0
0
0
0
0
0
0
0
0
0
0
0
0
0
0
0
0
0
0
0
0
0
0
0
0
0
0
0
0
0
0
0
0
0
0
0
0
0
0
0
0
0
0
0
0
0
0
0
0
0
0
0
0
0
0
0
0
0
0
0
0
0
0
0
0
0
0
0
0
0
0
0
0
0
0
0
0
0
0
0
0
0
0
0
0
0
0
0
0
0
0
0
0
0
0
0
0
0
0
0
0
0
0
0
0
0
0
0
0
0
0
0
0
0
0
0
0
0
0
0
0
0
0
0
0
0
0
0
0
0
0
0
0
0
0
0
0
0
0
0
0
0
0
0
0
0
0
0
0
0
0
0
0
0
0
0
0
0
0
0
0
0
0
0
0
0
0
0
0
0
0
0
0
0
0
0
0
0
0
0
0
0
0
0
0
0
0
0
0
0
0
0
0
0
0
0
0
0
0
0
0
0
0
0
0
0
0
0
0
0
0
0
0
0
0
0
0
0
0
0
0
0
0
0
0
0
0
0
0
0
0
0
0
0
0
0
0
0
0
0
0
0
0
0
0
0
0
0
0
0
0
0
0
0
0
0
0
0
0
0
0
0
0
0
0
0
0
0
0
0
0
0
0
0
0
0
0
0
0
0
0
0
0
0
0
0
0
0
0
0
0
0
0
0
0
0
0
0
0
0
0
0
0
0
0
0
0
0
0
0
0
0
0
0
0
0
0
0
0
0
0
0
0
0
0
0
0
0
0
0
0
0
0
0
0
0
0
0
0
0
0
0
0
0
0
0
0
0
0
0
0
0
0
0
0
0
0
0
0
0
0
0
0
0
0
0
0
0
0
0
0
0
0
0
0
0
0
0
0
0
0
0
0
0
0
0
0
0
0
0
0
0
0
0
0
0
0
0
0
0
0
0
0
0
0
0
0
0
0
0
0
0
0
0
0
0
0
0
0
0
0
0
0
0
0
0
0
0
0
0
0
0
0
0
0
0
0
0
0
0
0
0
0
0
0
0
0
0
0
0
0
0
0
0
0
0
0
0
0
0
0
0
0
0
0
0
0
0
0
0
0
0
0
0
0
0
0
0
0
0
0
0
0
0
0
0
0
0
0
0
0
0
0
0
0
0
0
0
0
0
0
0
0
0
0
0
0
0
0
0
0
0
0
0
0
0
0
0
0
0
0
0
0
0
0
0
0
0
0
0
0
0
0
0
0
0
0
0
0
0
0
0
0
0
0
0
0
0
0
0
0
0
0
0
0
0
0
0
0
0
0
0
0
0
0
0
0
0
0
0
0
0
0
0
0
0
0
0
0
0
0
0
0
0
0
0
0
0
0
0
0
0
0
0
0
0
0
0
0
0
0
0
0
0
0
0
0
0
0
0
0
0
0
0
0
0
0
0
0
0
0
0
0
0
0
0
0
0
0
0
0
0
0
0
0
0
0
0
0
0
0
0
0
0
0
0
0
0.0643836
0.0377431
0.0342137
0.029008
0.0253837
0.0228951
0.0212761
0.0203005
0.0198238
0.0200663
0.0213249
0.023715
0.0272724
0.0320774
0.0380932
0.0450162
0.0525425
0.0605101
0.0687135
0.0768636
0.0847302
0.0921439
0.0989789
0.105105
0.11024
0.11406
0.11636
0.116967
0.115777
0.112874
0.10839
0.102449
0.0953582
0.0875494
0.079338
0.0709778
0.062831
0.0552191
0.0481933
0.0416654
0.0357058
0.0305334
0.0262073
0.022479
0.0190399
0.0158814
0.0133415
0.0117562
0.0110421
0.0105969
0.00963771
0.00772287
0.00504045
0.00226121
0.000126163
-0.000915235
-0.000840505
2.0682e-05
0.00117121
0.00214517
0.00265136
0.00262346
0.00217851
0.00152293
0.000858337
0.000322582
-2.61957e-05
-0.000194769
-0.000227317
-0.000179215
-9.91413e-05
-2.07083e-05
3.84468e-05
7.32822e-05
8.65374e-05
8.43754e-05
7.33448e-05
5.87578e-05
4.41651e-05
3.14926e-05
2.14628e-05
1.40554e-05
8.88028e-06
5.43014e-06
3.2218e-06
1.85865e-06
1.04441e-06
5.72501e-07
3.06528e-07