# vtk DataFile Version 2.0
FlowField
ASCII
DATASET STRUCTURED_GRID
DIMENSIONS 1602 1 52
POINTS 83304 float
0 0 0
0.1 0 0
0.2 0 0
0.3 0 0
0.4 0 0
0.5 0 0
0.6 0 0
0.7 0 0
0.8 0 0
0.9 0 0
1 0 0
1.1 0 0
1.2 0 0
1.3 0 0
1.4 0 0
1.5 0 0
1.6 0 0
1.7 0 0
1.8 0 0
1.9 0 0
2 0 0
2.1 0 0
2.2 0 0
2.3 0 0
2.4 0 0
2.5 0 0
2.6 0 0
2.7 0 0
2.8 0 0
2.9 0 0
3 0 0
3.1 0 0
3.2 0 0
3.3 0 0
3.4 0 0
3.5 0 0
3.6 0 0
3.7 0 0
3.8 0 0
3.9 0 0
4 0 0
4.1 0 0
4.2 0 0
4.3 0 0
4.4 0 0
4.5 0 0
4.6 0 0
4.7 0 0
4.8 0 0
4.9 0 0
5 0 0
5.1 0 0
5.2 0 0
5.3 0 0
5.4 0 0
5.5 0 0
5.6 0 0
5.7 0 0
5.8 0 0
5.9 0 0
6 0 0
6.1 0 0
6.2 0 0
6.3 0 0
6.4 0 0
6.5 0 0
6.6 0 0
6.7 0 0
6.8 0 0
6.9 0 0
7 0 0
7.1 0 0
7.2 0 0
7.3 0 0
7.4 0 0
7.5 0 0
7.6 0 0
7.7 0 0
7.8 0 0
7.9 0 0
8 0 0
8.1 0 0
8.2 0 0
8.3 0 0
8.4 0 0
8.5 0 0
8.6 0 0
8.7 0 0
8.8 0 0
8.9 0 0
9 0 0
9.1 0 0
9.2 0 0
9.3 0 0
9.4 0 0
9.5 0 0
9.6 0 0
9.7 0 0
9.8 0 0
9.9 0 0
10 0 0
10.1 0 0
10.2 0 0
10.3 0 0
10.4 0 0
10.5 0 0
10.6 0 0
10.7 0 0
10.8 0 0
10.9 0 0
11 0 0
11.1 0 0
11.2 0 0
11.3 0 0
11.4 0 0
11.5 0 0
11.6 0 0
11.7 0 0
11.8 0 0
11.9 0 0
12 0 0
12.1 0 0
12.2 0 0
12.3 0 0
12.4 0 0
12.5 0 0
12.6 0 0
12.7 0 0
12.8 0 0
12.9 0 0
13 0 0
13.1 0 0
13.2 0 0
13.3 0 0
13.4 0 0
13.5 0 0
13.6 0 0
13.7 0 0
13.8 0 0
13.9 0 0
14 0 0
14.1 0 0
14.2 0 0
14.3 0 0
14.4 0 0
14.5 0 0
14.6 0 0
14.7 0 0
14.8 0 0
14.9 0 0
15 0 0
15.1 0 0
15.2 0 0
15.3 0 0
15.4 0 0
15.5 0 0
15.6 0 0
15.7 0 0
15.8 0 0
15.9 0 0
16 0 0
16.1 0 0
16.2 0 0
16.3 0 0
16.4 0 0
16.5 0 0
16.6 0 0
16.7 0 0
16.8 0 0
16.9 0 0
17 0 0
17.1 0 0
17.2 0 0
17.3 0 0
17.4 0 0
17.5 0 0
17.6 0 0
17.7 0 0
17.8 0 0
17.9 0 0
18 0 0
18.1 0 0
18.2 0 0
18.3 0 0
18.4 0 0
18.5 0 0
18.6 0 0
18.7 0 0
18.8 0 0
18.9 0 0
19 0 0
19.1 0 0
19.2 0 0
19.3 0 0
19.4 0 0
19.5 0 0
19.6 0 0
19.7 0 0
19.8 0 0
19.9 0 0
20 0 0
20.1 0 0
20.2 0 0
20.3 0 0
20.4 0 0
20.5 0 0
20.6 0 0
20.7 0 0
20.8 0 0
20.9 0 0
21 0 0
21.1 0 0
21.2 0 0
21.3 0 0
21.4 0 0
21.5 0 0
21.6 0 0
21.7 0 0
21.8 0 0
21.9 0 0
22 0 0
22.1 0 0
22.2 0 0
22.3 0 0
22.4 0 0
22.5 0 0
22.6 0 0
22.7 0 0
22.8 0 0
22.9 0 0
23 0 0
23.1 0 0
23.2 0 0
23.3 0 0
23.4 0 0
23.5 0 0
23.6 0 0
23.7 0 0
23.8 0 0
23.9 0 0
24 0 0
24.1 0 0
24.2 0 0
24.3 0 0
24.4 0 0
24.5 0 0
24.6 0 0
24.7 0 0
24.8 0 0
24.9 0 0
25 0 0
25.1 0 0
25.2 0 0
25.3 0 0
25.4 0 0
25.5 0 0
25.6 0 0
25.7 0 0
25.8 0 0
25.9 0 0
26 0 0
26.1 0 0
26.2 0 0
26.3 0 0
26.4 0 0
26.5 0 0
26.6 0 0
26.7 0 0
26.8 0 0
26.9 0 0
27 0 0
27.1 0 0
27.2 0 0
27.3 0 0
27.4 0 0
27.5 0 0
27.6 0 0
27.7 0 0
27.8 0 0
27.9 0 0
28 0 0
28.1 0 0
28.2 0 0
28.3 0 0
28.4 0 0
28.5 0 0
28.6 0 0
28.7 0 0
28.8 0 0
28.9 0 0
29 0 0
29.1 0 0
29.2 0 0
29.3 0 0
29.4 0 0
29.5 0 0
29.6 0 0
29.7 0 0
29.8 0 0
29.9 0 0
30 0 0
30.1 0 0
30.2 0 0
30.3 0 0
30.4 0 0
30.5 0 0
30.6 0 0
30.7 0 0
30.8 0 0
30.9 0 0
31 0 0
31.1 0 0
31.2 0 0
31.3 0 0
31.4 0 0
31.5 0 0
31.6 0 0
31.7 0 0
31.8 0 0
31.9 0 0
32 0 0
32.1 0 0
32.2 0 0
32.3 0 0
32.4 0 0
32.5 0 0
32.6 0 0
32.7 0 0
32.8 0 0
32.9 0 0
33 0 0
33.1 0 0
33.2 0 0
33.3 0 0
33.4 0 0
33.5 0 0
33.6 0 0
33.7 0 0
33.8 0 0
33.9 0 0
34 0 0
34.1 0 0
34.2 0 0
34.3 0 0
34.4 0 0
34.5 0 0
34.6 0 0
34.7 0 0
34.8 0 0
34.9 0 0
35 0 0
35.1 0 0
35.2 0 0
35.3 0 0
35.4 0 0
35.5 0 0
35.6 0 0
35.7 0 0
35.8 0 0
35.9 0 0
36 0 0
36.1 0 0
36.2 0 0
36.3 0 0
36.4 0 0
36.5 0 0
36.6 0 0
36.7 0 0
36.8 0 0
36.9 0 0
37 0 0
37.1 0 0
37.2 0 0
37.3 0 0
37.4 0 0
37.5 0 0
37.6 0 0
37.7 0 0
37.8 0 0
37.9 0 0
38 0 0
38.1 0 0
38.2 0 0
38.3 0 0
38.4 0 0
38.5 0 0
38.6 0 0
38.7 0 0
38.8 0 0
38.9 0 0
39 0 0
39.1 0 0
39.2 0 0
39.3 0 0
39.4 0 0
39.5 0 0
39.6 0 0
39.7 0 0
39.8 0 0
39.9 0 0
40 0 0
40.1 0 0
40.2 0 0
40.3 0 0
40.4 0 0
40.5 0 0
40.6 0 0
40.7 0 0
40.8 0 0
40.9 0 0
41 0 0
41.1 0 0
41.2 0 0
41.3 0 0
41.4 0 0
41.5 0 0
41.6 0 0
41.7 0 0
41.8 0 0
41.9 0 0
42 0 0
42.1 0 0
42.2 0 0
42.3 0 0
42.4 0 0
42.5 0 0
42.6 0 0
42.7 0 0
42.8 0 0
42.9 0 0
43 0 0
43.1 0 0
43.2 0 0
43.3 0 0
43.4 0 0
43.5 0 0
43.6 0 0
43.7 0 0
43.8 0 0
43.9 0 0
44 0 0
44.1 0 0
44.2 0 0
44.3 0 0
44.4 0 0
44.5 0 0
44.6 0 0
44.7 0 0
44.8 0 0
44.9 0 0
45 0 0
45.1 0 0
45.2 0 0
45.3 0 0
45.4 0 0
45.5 0 0
45.6 0 0
45.7 0 0
45.8 0 0
45.9 0 0
46 0 0
46.1 0 0
46.2 0 0
46.3 0 0
46.4 0 0
46.5 0 0
46.6 0 0
46.7 0 0
46.8 0 0
46.9 0 0
47 0 0
47.1 0 0
47.2 0 0
47.3 0 0
47.4 0 0
47.5 0 0
47.6 0 0
47.7 0 0
47.8 0 0
47.9 0 0
48 0 0
48.1 0 0
48.2 0 0
48.3 0 0
48.4 0 0
48.5 0 0
48.6 0 0
48.7 0 0
48.8 0 0
48.9 0 0
49 0 0
49.1 0 0
49.2 0 0
49.3 0 0
49.4 0 0
49.5 0 0
49.6 0 0
49.7 0 0
49.8 0 0
49.9 0 0
50 0 0
50.1 0 0
50.2 0 0
50.3 0 0
50.4 0 0
50.5 0 0
50.6 0 0
50.7 0 0
50.8 0 0
50.9 0 0
51 0 0
51.1 0 0
51.2 0 0
51.3 0 0
51.4 0 0
51.5 0 0
51.6 0 0
51.7 0 0
51.8 0 0
51.9 0 0
52 0 0
52.1 0 0
52.2 0 0
52.3 0 0
52.4 0 0
52.5 0 0
52.6 0 0
52.7 0 0
52.8 0 0
52.9 0 0
53 0 0
53.1 0 0
53.2 0 0
53.3 0 0
53.4 0 0
53.5 0 0
53.6 0 0
53.7 0 0
53.8 0 0
53.9 0 0
54 0 0
54.1 0 0
54.2 0 0
54.3 0 0
54.4 0 0
54.5 0 0
54.6 0 0
54.7 0 0
54.8 0 0
54.9 0 0
55 0 0
55.1 0 0
55.2 0 0
55.3 0 0
55.4 0 0
55.5 0 0
55.6 0 0
55.7 0 0
55.8 0 0
55.9 0 0
56 0 0
56.1 0 0
56.2 0 0
56.3 0 0
56.4 0 0
56.5 0 0
56.6 0 0
56.7 0 0
56.8 0 0
56.9 0 0
57 0 0
57.1 0 0
57.2 0 0
57.3 0 0
57.4 0 0
57.5 0 0
57.6 0 0
57.7 0 0
57.8 0 0
57.9 0 0
58 0 0
58.1 0 0
58.2 0 0
58.3 0 0
58.4 0 0
58.5 0 0
58.6 0 0
58.7 0 0
58.8 0 0
58.9 0 0
59 0 0
59.1 0 0
59.2 0 0
59.3 0 0
59.4 0 0
59.5 0 0
59.6 0 0
59.7 0 0
59.8 0 0
59.9 0 0
60 0 0
60.1 0 0
60.2 0 0
60.3 0 0
60.4 0 0
60.5 0 0
60.6 0 0
60.7 0 0
60.8 0 0
60.9 0 0
61 0 0
61.1 0 0
61.2 0 0
61.3 0 0
61.4 0 0
61.5 0 0
61.6 0 0
61.7 0 0
61.8 0 0
61.9 0 0
62 0 0
62.1 0 0
62.2 0 0
62.3 0 0
62.4 0 0
62.5 0 0
62.6 0 0
62.7 0 0
62.8 0 0
62.9 0 0
63 0 0
63.1 0 0
63.2 0 0
63.3 0 0
63.4 0 0
63.5 0 0
63.6 0 0
63.7 0 0
63.8 0 0
63.9 0 0
64 0 0
64.1 0 0
64.2 0 0
64.3 0 0
64.4 0 0
64.5 0 0
64.6 0 0
64.7 0 0
64.8 0 0
64.9 0 0
65 0 0
65.1 0 0
65.2 0 0
65.3 0 0
65.4 0 0
65.5 0 0
65.6 0 0
65.7 0 0
65.8 0 0
65.9 0 0
66 0 0
66.1 0 0
66.2 0 0
66.3 0 0
66.4 0 0
66.5 0 0
66.6 0 0
66.7 0 0
66.8 0 0
66.9 0 0
67 0 0
67.1 0 0
67.2 0 0
67.3 0 0
67.4 0 0
67.5 0 0
67.6 0 0
67.7 0 0
67.8 0 0
67.9 0 0
68 0 0
68.1 0 0
68.2 0 0
68.3 0 0
68.4 0 0
68.5 0 0
68.6 0 0
68.7 0 0
68.8 0 0
68.9 0 0
69 0 0
69.1 0 0
69.2 0 0
69.3 0 0
69.4 0 0
69.5 0 0
69.6 0 0
69.7 0 0
69.8 0 0
69.9 0 0
70 0 0
70.1 0 0
70.2 0 0
70.3 0 0
70.4 0 0
70.5 0 0
70.6 0 0
70.7 0 0
70.8 0 0
70.9 0 0
71 0 0
71.1 0 0
71.2 0 0
71.3 0 0
71.4 0 0
71.5 0 0
71.6 0 0
71.7 0 0
71.8 0 0
71.9 0 0
72 0 0
72.1 0 0
72.2 0 0
72.3 0 0
72.4 0 0
72.5 0 0
72.6 0 0
72.7 0 0
72.8 0 0
72.9 0 0
73 0 0
73.1 0 0
73.2 0 0
73.3 0 0
73.4 0 0
73.5 0 0
73.6 0 0
73.7 0 0
73.8 0 0
73.9 0 0
74 0 0
74.1 0 0
74.2 0 0
74.3 0 0
74.4 0 0
74.5 0 0
74.6 0 0
74.7 0 0
74.8 0 0
74.9 0 0
75 0 0
75.1 0 0
75.2 0 0
75.3 0 0
75.4 0 0
75.5 0 0
75.6 0 0
75.7 0 0
75.8 0 0
75.9 0 0
76 0 0
76.1 0 0
76.2 0 0
76.3 0 0
76.4 0 0
76.5 0 0
76.6 0 0
76.7 0 0
76.8 0 0
76.9 0 0
77 0 0
77.1 0 0
77.2 0 0
77.3 0 0
77.4 0 0
77.5 0 0
77.6 0 0
77.7 0 0
77.8 0 0
77.9 0 0
78 0 0
78.1 0 0
78.2 0 0
78.3 0 0
78.4 0 0
78.5 0 0
78.6 0 0
78.7 0 0
78.8 0 0
78.9 0 0
79 0 0
79.1 0 0
79.2 0 0
79.3 0 0
79.4 0 0
79.5 0 0
79.6 0 0
79.7 0 0
79.8 0 0
79.9 0 0
80 0 0
80.1 0 0
80.2 0 0
80.3 0 0
80.4 0 0
80.5 0 0
80.6 0 0
80.7 0 0
80.8 0 0
80.9 0 0
81 0 0
81.1 0 0
81.2 0 0
81.3 0 0
81.4 0 0
81.5 0 0
81.6 0 0
81.7 0 0
81.8 0 0
81.9 0 0
82 0 0
82.1 0 0
82.2 0 0
82.3 0 0
82.4 0 0
82.5 0 0
82.6 0 0
82.7 0 0
82.8 0 0
82.9 0 0
83 0 0
83.1 0 0
83.2 0 0
83.3 0 0
83.4 0 0
83.5 0 0
83.6 0 0
83.7 0 0
83.8 0 0
83.9 0 0
84 0 0
84.1 0 0
84.2 0 0
84.3 0 0
84.4 0 0
84.5 0 0
84.6 0 0
84.7 0 0
84.8 0 0
84.9 0 0
85 0 0
85.1 0 0
85.2 0 0
85.3 0 0
85.4 0 0
85.5 0 0
85.6 0 0
85.7 0 0
85.8 0 0
85.9 0 0
86 0 0
86.1 0 0
86.2 0 0
86.3 0 0
86.4 0 0
86.5 0 0
86.6 0 0
86.7 0 0
86.8 0 0
86.9 0 0
87 0 0
87.1 0 0
87.2 0 0
87.3 0 0
87.4 0 0
87.5 0 0
87.6 0 0
87.7 0 0
87.8 0 0
87.9 0 0
88 0 0
88.1 0 0
88.2 0 0
88.3 0 0
88.4 0 0
88.5 0 0
88.6 0 0
88.7 0 0
88.8 0 0
88.9 0 0
89 0 0
89.1 0 0
89.2 0 0
89.3 0 0
89.4 0 0
89.5 0 0
89.6 0 0
89.7 0 0
89.8 0 0
89.9 0 0
90 0 0
90.1 0 0
90.2 0 0
90.3 0 0
90.4 0 0
90.5 0 0
90.6 0 0
90.7 0 0
90.8 0 0
90.9 0 0
91 0 0
91.1 0 0
91.2 0 0
91.3 0 0
91.4 0 0
91.5 0 0
91.6 0 0
91.7 0 0
91.8 0 0
91.9 0 0
92 0 0
92.1 0 0
92.2 0 0
92.3 0 0
92.4 0 0
92.5 0 0
92.6 0 0
92.7 0 0
92.8 0 0
92.9 0 0
93 0 0
93.1 0 0
93.2 0 0
93.3 0 0
93.4 0 0
93.5 0 0
93.6 0 0
93.7 0 0
93.8 0 0
93.9 0 0
94 0 0
94.1 0 0
94.2 0 0
94.3 0 0
94.4 0 0
94.5 0 0
94.6 0 0
94.7 0 0
94.8 0 0
94.9 0 0
95 0 0
95.1 0 0
95.2 0 0
95.3 0 0
95.4 0 0
95.5 0 0
95.6 0 0
95.7 0 0
95.8 0 0
95.9 0 0
96 0 0
96.1 0 0
96.2 0 0
96.3 0 0
96.4 0 0
96.5 0 0
96.6 0 0
96.7 0 0
96.8 0 0
96.9 0 0
97 0 0
97.1 0 0
97.2 0 0
97.3 0 0
97.4 0 0
97.5 0 0
97.6 0 0
97.7 0 0
97.8 0 0
97.9 0 0
98 0 0
98.1 0 0
98.2 0 0
98.3 0 0
98.4 0 0
98.5 0 0
98.6 0 0
98.7 0 0
98.8 0 0
98.9 0 0
99 0 0
99.1 0 0
99.2 0 0
99.3 0 0
99.4 0 0
99.5 0 0
99.6 0 0
99.7 0 0
99.8 0 0
99.9 0 0
100 0 0
100.1 0 0
100.2 0 0
100.3 0 0
100.4 0 0
100.5 0 0
100.6 0 0
100.7 0 0
100.8 0 0
100.9 0 0
101 0 0
101.1 0 0
101.2 0 0
101.3 0 0
101.4 0 0
101.5 0 0
101.6 0 0
101.7 0 0
101.8 0 0
101.9 0 0
102 0 0
102.1 0 0
102.2 0 0
102.3 0 0
102.4 0 0
102.5 0 0
102.6 0 0
102.7 0 0
102.8 0 0
102.9 0 0
103 0 0
103.1 0 0
103.2 0 0
103.3 0 0
103.4 0 0
103.5 0 0
103.6 0 0
103.7 0 0
103.8 0 0
103.9 0 0
104 0 0
104.1 0 0
104.2 0 0
104.3 0 0
104.4 0 0
104.5 0 0
104.6 0 0
104.7 0 0
104.8 0 0
104.9 0 0
105 0 0
105.1 0 0
105.2 0 0
105.3 0 0
105.4 0 0
105.5 0 0
105.6 0 0
105.7 0 0
105.8 0 0
105.9 0 0
106 0 0
106.1 0 0
106.2 0 0
106.3 0 0
106.4 0 0
106.5 0 0
106.6 0 0
106.7 0 0
106.8 0 0
106.9 0 0
107 0 0
107.1 0 0
107.2 0 0
107.3 0 0
107.4 0 0
107.5 0 0
107.6 0 0
107.7 0 0
107.8 0 0
107.9 0 0
108 0 0
108.1 0 0
108.2 0 0
108.3 0 0
108.4 0 0
108.5 0 0
108.6 0 0
108.7 0 0
108.8 0 0
108.9 0 0
109 0 0
109.1 0 0
109.2 0 0
109.3 0 0
109.4 0 0
109.5 0 0
109.6 0 0
109.7 0 0
109.8 0 0
109.9 0 0
110 0 0
110.1 0 0
110.2 0 0
110.3 0 0
110.4 0 0
110.5 0 0
110.6 0 0
110.7 0 0
110.8 0 0
110.9 0 0
111 0 0
111.1 0 0
111.2 0 0
111.3 0 0
111.4 0 0
111.5 0 0
111.6 0 0
111.7 0 0
111.8 0 0
111.9 0 0
112 0 0
[...]
POINT_DATA 83304

SCALARS pressure float 1
LOOKUP_TABLE default
0
0
0
0
0
0
0
0
0
0
0
0
0
0
0
0
0
0
0
0
0
0
0
0
0
0
0
0
0
0
0
0
0
0
0
0
0
0
0
0
0
0
0
0
0
0
0
0
0
0
0
0
0
0
0
0
0
0
0
0
0
0
0
0
0
0
0
0
0
0
0
0
0
0
0
0
0
0
0
0
0
0
0
0
0
0
0
0
0
0
0
0
0
0
0
0
0
0
0
0
0
0
0
0
0
0
0
0
0
0
0
0
0
0
0
0
0
0
0
0
0
0
0
0
0
0
0
0
0
0
0
0
0
0
0
0
0
0
0
0
0
0
0
0
0
0
0
0
0
0
0
0
0
0
0
0
0
0
0
0
0
0
0
0
0
0
0
0
0
0
0
0
0
0
0
0
0
0
0
0
0
0
0
0
0
0
0
0
0
0
0
0
0
0
0
0
0
0
0
0
0
0
0
0
0
0
0
0
0
0
0
0
0
0
0
0
0
0
0
0
0
0
0
0
0
0
0
0
0
0
0
0
0
0
0
0
0
0
0
0
0
0
0
0
0
0
0
0
0
0
0
0
0
0
0
0
0
0
0
0
0
0
0
0
0
0
0
0
0
0
0
0
0
0
0
0
0
0
0
0
0
0
0
0
0
0
0
0
0
0
0
0
0
0
0
0
0
0
0
0
0
0
0
0
0
0
0
0
0
0
0
0
0
0
0
0
0
0
0
0
0
0
0
0
0
0
0
0
0
0
0
0
0
0
0
0
0
0
0
0
0
0
0
0
0
0
0
0
0
0
0
0
0
0
0
0
0
0
0
0
0
0
0
0
0
0
0
0
0
0
0
0
0
0
0
0
0
0
0
0
0
0
0
0
0
0
0
0
0
0
0
0
0
0
0
0
0
0
0
0
0
0
0
0
0
0
0
0
0
0
0
0
0
0
0
0
0
0
0
0
0
0
0
0
0
0
0
0
0
0
0
0
0
0
0
0
0
0
0
0
0
0
0
0
0
0
0
0
0
0
0
0
0
0
0
0
0
0
0
0
0
0
0
0
0
0
0
0
0
0
0
0
0
0
0
0
0
0
0
0
0
0
0
0
0
0
0
0
0
0
0
0
0
0
0
0
0
0
0
0
0
0
0
0
0
0
0
0
0
0
0
0
0
0
0
0
0
0
0
0
0
0
0
0
0
0
0
0
0
0
0
0
0
0
0
0
0
0
0
0
0
0
0
0
0
0
0
0
0
0
0
0
0
0
0
0
0
0
0
0
0
0
0
0
0
0
0
0
0
0
0
0
0
0
0
0
0
0
0
0
0
0
0
0
0
0
0
0
0
0
0
0
0
0
0
0
0
0
0
0
0
0
0
0
0
0
0
0
0
0
0
0
0
0
0
0
0
0
0
0
0
0
0
0
0
0
0
0
0
0
0
0
0
0
0
0
0
0
0
0
0
0
0
0
0
0
0
0
0
0
0
0
0
0
0
0
0
0
0
0
0
0
0
0
0
0
0
0
0
0
0
0
0
0
0
0
0
0
0
0
0
0
0
0
0
0
0
0
0
0
0
0
0
0
0
0
0
0
0
0
0
0
0
0
0
0
0
0
0
0
0
0
0
0
0
0
0
0
0
0
0
0
0
0
0
0
0
0
0
0
0
0
0
0
0
0
0
0
0
0
0
0
0
0
0
0
0
0
0
0
0
0
0
0
0
0
0
0
0
0
0
0
0
0
0
0
0
0
0
0
0
0
0
0
0
0
0
0
0
0
0
0
0
0
0
0
0
0
0
0
0
0
0
0
0
0
0
0
0
0
0
0
0
0
0
0
0
0
0
0
0
0
0
0
0
0
0
0
0
0
0
0
0
0
0
0
0
0
0
0
0
0
0
0
0
0
0
0
0
0
0
0
0
0
0
0
0
0
0
0
0
0
0
0
0
0
0
0
0
0
0
0
0
0
0
0
0
0
0
0
0
0
0
0
0
0
0
0
0
0
0
0
0
0
0
0
0
0
0
0
0
0
0
0
0
0
0
0
0
0
0
0
0
0
0
0
0
0
0
0
0
0
0
0
0
0
0
0
0
0
0
0
0
0
0
0
0
0
0
0
0
0
0
0
0
0
0
0
0
0
0
0
0
0
0
0
0
0
0
0
0
0
0
0
0
0
0
0
0
0
0
0
0
0
0
0
0
0
0
0
0
0
0
0
0
0
0
0
0
0
0
0
0
0
0
0
0
0
0
0
0
0
0
0
0
0
0
0
0
0
0
0
0
0
0
0
0
0
0
0
0
0
0
0
0
0
0
0
0
0
0
0
0
0
0
0
0
0
0
0
0
0
0
0
0
0
0
0
0
0
0
0
0
0
0
0
0
0
0
0
0
0
0
0
0
0
0
0
0
0
0
0
0
0
0
0
0
0
0
0
0
0
0
0
0
0
0
0
0
0
0
0
0
0
0
0
0
0
0
0
0
0
0
0
0
0
0
0
0
0
0
0
0
0
0
0
0
0
0
0
0
0
0
0
0
0
0
0
0
0
0
0
0
0
0
0
0
0
0
0
0
0
0
0
0
0
0
0
0
0
0
0
0
0
0
0
0
0
0
0
0
0
0
0
0
0
0
0
0
0
0
0
0
0
0
0
0
0
0
0
0
0
0
0
0
0
0
0
0
0
0
0
0
0
0
0
0
0
0
0
0
0
0
0
0
0
0
0
0
0
0
0
0
0
0
0
0
0
0
0
0
0
0
0
0
0
0
0
0
0
0
0
0
0
0
0
0
0
0
0
0
0
0
0
0
0
0
0
0
0
0
0
0
0
0
0
0
0
0
0
0
0
0
0
0
0
0
0
0
0
0
0
0
0
0
0
0
0
0
0
0
0
0
0
0
0
0
0
0
0
0
0
0
0
0
0
0
0
0
0
0
0
0
0
0
0
0
0
0
0
0
0
0
0
0
0
0
0
0
0
0
0
0
0
0
0
0
0
0
0
0
0
0
0
0
0
0
0
0
0
0
0
0
0
0
0
0
0
0
0
0
0
0
0
0
0
0
0
0
0
0
0
0
0
0
0
0
0
0
0
0
0
0
0
0
0
0
0
0
0
0
0
0
0
0
0
0
0
0
0
0
0
0
0
0
0
0
0
0
0
0
0
0
0
0
0
0
0
0
0
0
0
0
0
0
0
0
0
0
0
0
0
0
0
0
0
0
0
0
0
0
0
0
0
0
0
0
0
0
0
0
0
0
0
0
0
0
0
0
0
0
0
0
0
0
0
0
0
0
0
0
0
0
0
0
0
0
0
0
0
0
0
0
0
0
0
0
0
0
0
0
0
0
0
0
0
0
0
0
0
0
0
0
0
0
0
0
0
0
0
0
0
0
0
0
0
0
0
0
0
0
0
0
0
0
0
0
0
0
0
0
0
0
0
0
0
0
0
0
0
0
0
0
0
0
0
0
0
0
0
0
0
0
0
0
0
0
0
0
0
0
0
0
0
0
0
0
0
0
0
0
0
0
0
0
0
0
0
0
0
0
0
0
0
0
0
0
0
0
0
0
0
0
0
0
0
0
0
0
0
0
0
0
0
0
0
0
0
0
0
0
0
0
0
0
0
0
0
0
0
0
0
0
0.0776415
0.052903
0.0436505
0.0357426
0.03048
0.0271088
0.0248019
0.023116
0.0218008
0.0207277
0.0198235
0.0190436
0.0183596
0.0177519
0.0172066
0.0167134
0.0162643
0.0158532
0.0154749
0.0151254
0.0148012
0.0144993
0.0142174
0.0139533
0.0137051
0.0134714
0.0132506
0.0130416
0.0128434
0.0126549
0.0124753
0.012304
0.0121401
0.0119833
0.0118328
0.0116884
0.0115494
0.0114156
0.0112866
0.0111621
0.0110418
0.0109255
0.0108128
0.0107037
0.0105979
0.0104952
0.0103955
0.0102986
0.0102044
0.0101127
0.0100234
0.00993648
0.00985173
0.00976908
0.00968847
0.00960981
0.00953308
0.00945825
0.00938531
0.00931431
0.0092453
0.00917839
0.00911369
0.00905134
0.00899148
0.00893418
0.00887949
0.00882731
0.00877739
0.00872928
0.00868227
0.00863533
0.00858719
0.0085363
0.00848091
0.00841929
0.00834984
0.00827143
0.00818368
0.00808735
0.00798468
0.0078797
0.00777844
0.00768893
0.00762096
0.0075856
0.00759429
0.00765768
0.00778407
0.00797771
0.008237
0.00855266
0.00890629
0.00926921
0.00960207
0.00985533
0.00997093
0.00988536
0.00953464
0.00886193
0.00782641
0.00641213
0.00464022
0.00258243
0.000371065
-0.00179789
-0.00367891
-0.00500608
-0.00552717
-0.00503352
-0.0033827
-0.000511677
0.00356792
0.00877755
0.0149859
0.0220251
0.0297058
0.0378327
0.0462049
0.0546101
0.0628462
0.0707334
0.0780727
0.0846264
0.090174
0.0945833
0.0978105
0.0998442
0.100669
0.100282
0.0987166
0.09606
0.092443
0.0880266
0.0829882
0.0775104
0.0717711
0.0659338
0.0601402
0.0545056
0.0491181
0.0440401
0.0393111
0.0349521
0.0309688
0.0273558
0.0240995
0.0211807
0.0185768
0.0162631
0.0142147
0.0124066
0.0108149
0.00941697
0.00819169
0.00711963
0.00618308
0.00536603
0.00465408
0.00403436
0.00349542
0.00302712
0.00262049
0.00226764
0.00196164
0.0016964
0.00146661
0.0012676
0.00109532
0.00094624
0.000817269
0.000705728
0.00060929
0.000525931
0.000453894
0.000391655
0.000337894
0.000291464
0.000251374
0.000216764
0.000186891
0.00016111
0.000138866
0.000119675
0.000103121
8.88447e-05
7.65339e-05
6.59197e-05
5.67696e-05
4.88828e-05
4.20859e-05
3.6229e-05
3.1183e-05
2.6836e-05
2.30919e-05
1.98674e-05
1.70909e-05
1.47003e-05
1.26424e-05
1.0871e-05
9.34659e-06
8.0348e-06
6.90615e-06
5.93521e-06
5.10006e-06
4.3818e-06
3.76416e-06
3.23312e-06
2.77659e-06
2.38419e-06
2.04694e-06
1.75714e-06
1.50814e-06
1.29424e-06
1.1105e-06
9.52711e-07
8.17214e-07
7.0088e-07
6.01013e-07
5.15296e-07
4.41734e-07
3.78613e-07
3.2446e-07
2.78007e-07
2.38165e-07
2.04e-07
1.74706e-07
1.49594e-07
1.28069e-07
1.09623e-07
9.38172e-08
8.02762e-08
6.86774e-08
5.8744e-08
5.02384e-08
4.29566e-08
3.67237e-08
3.13896e-08
2.68255e-08
2.2921e-08
1.95813e-08
1.67253e-08
1.42833e-08
1.21957e-08
1.0411e-08
8.88534e-09
7.5808e-09
6.46517e-09
5.51104e-09
4.69527e-09
3.99827e-09
3.40336e-09
2.89616e-09
2.46419e-09
2.09672e-09
1.78476e-09
1.5211e-09
1.30004e-09
1.11682e-09
9.66609e-10
8.43509e-10
7.3999e-10
6.47165e-10
5.5616e-10
4.60311e-10
3.57512e-10
2.51743e-10
1.52921e-10
7.46467e-11
3.01924e-11
2.77728e-11
6.6637e-11
1.3545e-10
2.13849e-10
2.77081e-10
3.02565e-10
2.76485e-10
1.98357e-10
8.20109e-11
-4.75091e-11
-1.60373e-10
-2.29939e-10
-2.39978e-10
-1.89071e-10
-9.09369e-11
2.93341e-11
1.42004e-10
2.20412e-10
2.47555e-10
2.19808e-10
1.46971e-10
4.88821e-11
-5.02513e-11
-1.28118e-10
-1.69508e-10
-1.69222e-10
-1.32205e-10
-7.11819e-11
-2.70406e-12
5.72124e-11
9.67223e-11
1.10274e-10
9.89302e-11
6.90838e-11
3.01421e-11
-8.10071e-12
-3.77243e-11
-5.41079e-11
-5.63411e-11
-4.67159e-11
-2.95958e-11
-1.00472e-11
7.4051e-12
1.96401e-11
2.53076e-11
2.47255e-11
1.94358e-11
1.15955e-11
3.37723e-12
-3.49075e-12
-7.97795e-12
-9.79335e-12
-9.2595e-12
-7.08886e-12
-4.13599e-12
-1.18505e-12
1.19117e-12
2.69014e-12
3.2663e-12
3.06844e-12
2.35485e-12
1.4103e-12
4.81631e-13
-2.60071e-13
-7.30805e-13
-9.24028e-13
-8.88404e-13
-7.01339e-13
-4.44985e-13
-1.88808e-13
1.98249e-14
1.57705e-13
2.22436e-13
2.26105e-13
1.88214e-13
1.2951e-13
6.76394e-14
1.48624e-14
-2.24186e-14
-4.28485e-14
-4.86255e-14
-4.38524e-14
-3.31051e-14
-2.04183e-14
-8.7346e-15
2.44102e-16
5.91903e-15
8.50182e-15
8.6784e-15
7.30915e-15
5.2083e-15
3.0143e-15
1.1412e-15
-2.1047e-16
-1.00809e-15
-1.32835e-15
-1.3014e-15
-1.06708e-15
-7.46433e-16
-4.27798e-16
-1.64236e-16
2.17424e-17
1.29905e-16
1.73394e-16
1.71051e-16
1.41849e-16
1.01571e-16
6.14035e-17
2.79107e-17
3.8267e-18
-1.08208e-17
-1.75857e-17
-1.86779e-17
-1.63143e-17
-1.23438e-17
-8.09328e-18
-4.36895e-18
-1.54504e-18
3.12401e-19
1.32329e-18
1.69299e-18
1.64125e-18
1.35984e-18
9.93388e-19
6.3655e-19
3.40687e-19
1.2473e-19
-1.34462e-20
-8.72827e-20
-1.14308e-19
-1.11499e-19
-9.28251e-20
-6.8392e-20
-4.45978e-20
-2.48156e-20
-1.02471e-20
-7.32633e-22
4.59613e-21
6.85214e-21
7.10572e-21
6.23772e-21
4.89114e-21
3.48276e-21
2.24486e-21
1.27608e-21
5.89159e-22
1.49417e-22
-9.76583e-23
-2.08867e-22
-2.33741e-22
-2.10656e-22
-1.66487e-22
-1.18167e-22
-7.49872e-23
-4.0934e-23
-1.66826e-23
-1.1178e-24
7.62258e-24
1.15039e-23
1.22523e-23
1.12163e-23
9.35315e-24
7.28032e-24
5.35133e-24
3.73348e-24
2.47435e-24
1.55297e-24
9.15703e-25
4.99185e-25
2.43373e-25
9.7755e-26
2.32151e-26
-8.55496e-27
-1.67974e-26
-1.37681e-26
-6.70117e-27
5.52486e-28
6.2704e-27
9.9637e-27
1.17797e-26
1.21309e-26
1.14833e-26
1.02508e-26
8.75463e-27
7.2184e-27
5.78132e-27
4.51742e-27
3.45494e-27
2.59273e-27
1.91289e-27
1.38971e-27
9.95448e-28
7.03789e-28
4.91574e-28
3.39464e-28
2.31925e-28
1.56857e-28
1.05071e-28
6.97396e-29
4.5885e-29
2.99373e-29
1.93751e-29
1.24422e-29
7.93014e-30
5.01773e-30
3.15261e-30
1.96725e-30
1.21944e-30
7.51011e-31
4.59609e-31
2.79547e-31
1.69007e-31
1.01578e-31
6.07004e-32
3.60688e-32
2.13142e-32
1.2527e-32
7.3234e-33
4.25896e-33
2.4641e-33
1.41846e-33
8.12476e-34
4.63101e-34
2.62689e-34
1.483e-34
8.33303e-35
4.66073e-35
2.59491e-35
1.43824e-35
7.93614e-36
4.35991e-36
2.38484e-36
1.29891e-36
7.04456e-37
3.80459e-37
2.04625e-37
1.09604e-37
5.84699e-38
3.10664e-38
1.64407e-38
8.66637e-39
4.5505e-39
2.38013e-39
1.24017e-39
6.43738e-40
3.32893e-40
1.71506e-40
8.80334e-41
4.50218e-41
2.29414e-41
1.16479e-41
5.89282e-42
2.97068e-42
1.49231e-42
7.47038e-43
3.72666e-43
1.85268e-43
9.179e-44
4.53227e-44
2.23035e-44
1.09389e-44
5.34727e-45
2.60528e-45
1.26518e-45
6.12401e-46
2.95469e-46
1.42099e-46
6.8121e-47
3.2553e-47
1.5507e-47
7.36383e-48
3.48597e-48
1.64512e-48
7.73981e-49
3.63021e-49
1.6975e-49
7.91356e-50
3.67811e-50
1.70441e-50
7.87465e-51
3.62743e-51
1.66604e-51
7.62956e-52
3.48374e-52
1.5861e-52
7.20046e-53
3.25943e-53
1.47124e-53
6.62196e-54
2.97209e-54
1.33019e-54
5.93672e-55
2.64221e-55
1.17269e-55
5.19037e-56
2.29097e-56
1.00844e-56
4.42686e-57
1.93804e-57
8.46171e-58
3.68455e-58
1.6001e-58
6.93031e-59
2.99368e-59
1.28976e-59
5.54206e-60
2.37517e-60
1.01528e-60
4.32858e-61
1.8407e-61
7.80728e-62
3.30295e-62
1.39378e-62
5.86652e-63
2.463e-63
1.03146e-63
4.3087e-64
1.79536e-64
7.46231e-65
3.09395e-65
1.27961e-65
5.27922e-66
2.17267e-66
8.91977e-67
3.65303e-67
1.49244e-67
6.08256e-68
2.47302e-68
1.00306e-68
4.05864e-69
1.63832e-69
6.59755e-70
2.65055e-70
1.06234e-70
4.24783e-71
1.69454e-71
6.74404e-72
2.67779e-72
1.06077e-72
4.1924e-73
1.65311e-73
6.50339e-74
2.5526e-74
9.99615e-75
3.90565e-75
1.52254e-75
5.92189e-76
2.29812e-76
8.89829e-77
3.4377e-77
1.32513e-77
5.09661e-78
1.95587e-78
7.48922e-79
2.86138e-79
1.09083e-79
4.14942e-80
1.57495e-80
5.96485e-81
2.25418e-81
8.50031e-82
3.19848e-82
1.20092e-82
4.49941e-83
1.68215e-83
6.27546e-84
2.33615e-84
8.67832e-85
3.21699e-85
1.19e-85
4.39268e-86
1.61808e-86
5.94786e-87
2.1818e-87
7.98666e-88
2.91752e-88
1.06356e-88
3.86914e-89
1.40466e-89
5.08905e-90
1.83998e-90
6.63898e-91
2.39059e-91
8.59065e-92
3.08082e-92
1.10263e-92
3.93838e-93
1.40389e-93
4.99431e-94
1.77317e-94
6.28287e-95
2.22178e-95
7.84122e-96
2.76188e-96
9.70889e-97
3.40626e-97
1.19271e-97
4.16809e-98
1.45376e-98
5.06057e-99
1.75818e-99
6.09653e-100
2.1099e-100
7.2879e-101
2.5125e-101
8.64521e-102
2.96901e-102
1.0177e-102
3.48173e-103
1.1889e-103
4.05201e-104
1.3784e-104
4.68011e-105
1.58606e-105
5.36494e-106
1.81132e-106
6.10398e-107
2.05314e-107
6.89313e-108
2.30996e-108
7.7266e-109
2.57969e-109
8.59696e-110
2.85971e-110
9.49511e-111
3.14689e-111
1.04104e-111
3.43765e-112
1.13309e-112
3.72799e-113
1.22433e-113
4.01362e-114
1.31338e-114
4.29003e-115
1.39878e-115
4.5526e-116
1.47908e-116
4.79675e-117
1.55285e-117
5.01808e-118
1.61873e-118
5.21246e-119
1.67549e-119
5.37621e-120
1.72205e-120
5.50618e-121
1.7575e-121
5.59989e-122
1.78117e-122
5.65554e-123
1.79262e-123
5.67215e-124
1.79166e-124
5.64954e-125
1.77836e-125
5.58832e-126
1.75305e-126
5.4899e-127
1.71629e-127
5.35643e-128
1.66886e-128
5.1907e-129
1.61174e-129
4.99605e-130
1.54605e-130
4.77628e-131
1.47307e-131
4.53552e-132
1.39412e-132
4.27808e-133
1.3106e-133
4.00836e-134
1.22389e-134
3.73072e-135
1.13534e-135
3.44935e-136
1.04624e-136
3.16818e-137
9.57797e-138
2.89084e-138
8.71086e-139
2.62052e-139
7.87053e-140
2.36e-140
7.06503e-141
2.11159e-141
6.30087e-142
1.8771e-142
5.58309e-143
1.6579e-143
4.91525e-144
1.4549e-144
4.29956e-145
1.26858e-145
3.73698e-146
1.09908e-146
3.22734e-147
9.46171e-148
2.76952e-148
8.09381e-149
2.36164e-149
6.87999e-150
2.00114e-150
5.81145e-151
1.68504e-151
4.87812e-152
1.40999e-152
4.06912e-153
1.17249e-153
3.37318e-154
9.68935e-155
2.77892e-155
7.95765e-156
2.27521e-156
6.49513e-157
1.85133e-157
5.26882e-158
1.49718e-158
4.24785e-159
1.20337e-159
3.40381e-160
9.6132e-161
2.71088e-161
7.63291e-162
2.14591e-162
6.02385e-163
1.68842e-163
4.7253e-164
1.32045e-164
3.68436e-165
1.02648e-165
2.85551e-166
7.93172e-167
2.19989e-167
6.09236e-168
1.6847e-168
4.65171e-169
1.2825e-169
3.53066e-170
9.70537e-171
2.66394e-171
7.30124e-172
1.99815e-172
5.46032e-173
1.48994e-173
4.05961e-174
1.10449e-174
3.00058e-175
8.13977e-176
2.20488e-176
5.96385e-177
1.61078e-177
4.34424e-178
1.16994e-178
3.14617e-179
8.44839e-180
2.26537e-180
6.06565e-181
1.62178e-181
4.32993e-182
1.15437e-182
3.0732e-183
8.16984e-184
2.16878e-184
5.74909e-185
1.52182e-185
4.02263e-186
1.06179e-186
2.79869e-187
7.36639e-188
1.93615e-188
5.08174e-189
1.3319e-189
3.48596e-190
9.11089e-191
2.37788e-191
6.19742e-192
1.61296e-192
4.19208e-193
1.088e-193
2.81984e-194
7.29821e-195
1.88627e-195
4.86843e-196
1.25479e-196
3.22965e-197
8.30114e-198
2.1307e-198
5.46144e-199
1.39796e-199
3.57345e-200
9.12186e-201
2.32533e-201
5.91959e-202
1.50489e-202
3.82057e-203
9.6863e-204
2.45243e-204
6.20079e-205
1.5657e-205
3.94803e-206
9.9418e-207
2.50013e-207
6.27878e-208
1.57472e-208
3.94408e-209
9.8652e-210
2.46424e-210
6.14722e-211
1.53141e-211
3.81002e-212
9.46632e-213
2.34886e-213
5.82043e-214
1.44038e-214
3.55976e-215
8.78595e-216
2.16562e-216
5.33093e-217
1.31054e-217
3.21754e-218
7.88907e-219
1.93178e-219
4.72408e-220
1.15374e-220
2.81405e-221
6.85466e-222
1.66753e-222
4.0513e-223
9.8299e-224
2.38198e-224
5.76454e-225
1.39324e-225
3.36299e-226
8.10703e-227
1.95181e-227
4.69301e-228
1.12695e-228
2.70272e-229
6.47349e-230
1.54852e-230
3.69947e-231
8.82682e-232
2.10336e-232
5.00574e-233
1.18979e-233
2.82433e-234
6.6959e-235
1.58544e-235
3.74921e-236
8.85481e-237
2.08866e-237
4.92048e-238
1.15771e-238
2.72045e-239
6.38462e-240
1.49652e-240
3.50337e-241
8.1911e-242
1.91273e-242
4.4609e-243
1.03907e-243
2.41729e-244
5.61653e-245
1.30337e-245
3.02081e-246
6.99265e-247
1.61666e-247
3.73301e-248
8.60914e-249
1.983e-249
4.56194e-250
1.04819e-250
2.40544e-251
5.51335e-252
1.26212e-252
2.88571e-253
6.5898e-254
1.503e-254
3.42385e-255
7.79001e-256
1.77024e-256
4.01786e-257
9.10814e-258
2.06222e-258
4.66351e-259
1.05333e-259
2.37622e-260
5.35408e-261
1.20492e-261
2.70835e-262
6.08033e-263
1.36341e-263
3.05353e-264
6.83056e-265
1.52612e-265
3.40564e-266
7.59082e-267
1.68989e-267
3.75758e-268
8.34527e-269
1.8512e-269
4.10156e-270
9.07669e-271
2.00627e-271
4.4293e-272
9.76711e-273
2.15121e-273
4.73243e-274
1.03985e-274
2.28217e-275
5.00276e-276
1.09537e-276
2.39552e-277
5.23274e-278
1.14169e-278
2.48804e-279
5.41573e-280
1.17747e-280
2.55701e-281
5.54638e-282
1.20165e-282
2.60042e-283
5.62083e-284
1.21354e-284
2.61699e-285
5.63698e-286
1.2128e-286
2.60631e-287
5.5945e-288
1.19949e-288
2.56879e-289
5.49491e-290
1.17407e-290
2.50568e-291
5.34144e-292
1.13735e-292
2.41897e-293
5.1389e-294
1.09047e-294
2.31131e-295
4.89339e-296
1.03482e-296
2.18587e-297
4.61202e-298
9.71994e-299
2.04617e-299
4.30258e-300
9.03699e-301
1.89595e-301
3.97318e-302
8.31686e-303
1.73896e-303
3.63188e-304
7.57677e-305
1.57888e-305
3.28643e-306
6.83302e-307
1.4191e-307
2.94394e-308
6.1004e-309
1.2627e-309
2.61072e-310
5.3918e-311
1.11231e-311
2.29209e-312
4.71796e-313
9.70054e-314
1.9923e-314
4.08726e-315
8.37586e-316
1.71453e-316
3.50576e-317
7.16043e-318
1.46089e-318
2.97729e-319
6.0612e-320
1.23269e-320
2.49997e-321
5.03947e-322
9.88131e-323
1.97626e-323
0
0
0
0
0
0
0
0
0
0
0
0
0
0
0
0
0
0
0
0
0
0
0
0
0
0
0
0
0
0
0
0
0
0
0
0
0
0
0
0
0
0
0
0
0
0
0
0
0
0
0
0
0
0
0
0
0
0
0
0
0
0
0
0
0
0
0
0
0
0
0
0
0
0
0
0
0
0
0
0
0
0
0
0
0
0
0
0
0
0
0
0
0
0
0
0
0
0
0
0
0
0
0
0
0
0
0
0
0
0
0
0
0
0
0
0
0
0
0
0
0
0
0
0
0
0
0
0
0
0
0
0
0
0
0
0
0
0
0
0
0
0
0
0
0
0
0
0
0
0
0
0
0
0
0
0
0
0
0
0
0
0
0
0
0
0
0
0
0
0
0
0
0
0
0
0
0
0
0
0
0
0
0
0
0
0
0
0
0
0
0
0
0
0
0
0
0
0
0
0
0
0
0
0
0
0
0
0
0
0
0
0
0
0
0
0
0
0
0
0
0
0
0
0
0
0
0
0
0
0
0
0
0
0
0
0
0
0
0
0
0
0
0
0
0
0
0
0
0
0
0
0
0
0
0
0
0
0
0
0
0
0
0
0
0
0
0
0
0
0
0
0
0
0
0
0
0
0
0
0
0
0
0
0
0
0
0
0
0
0
0
0
0
0
0
0
0
0
0
0
0
0
0
0
0
0
0
0
0
0
0
0
0
0
0
0
0
0
0
0
0
0
0
0
0
0
0
0
0
0
0
0
0
0
0
0
0
0
0
0
0
0
0
0
0
0
0
0
0
0
0
0
0
0
0
0
0
0
0
0
0
0
0
0
0
0
0
0
0
0
0
0
0
0
0
0
0
0
0
0
0
0
0
0
0
0
0
0
0
0
0
0
0
0
0
0
0
0
0
0
0
0
0
0
0
0
0
0
0
0
0
0
0
0
0
0
0
0
0
0
0
0
0
0
0
0
0
0
0
0
0
0
0
0
0
0
0
0
0
0
0
0
0
0
0
0
0
0
0
0
0
0
0
0
0
0
0
0
0
0
0
0
0
0
0
0
0
0
0
0
0
0
0
0
0
0
0
0
0
0
0
0
0
0
0
0
0
0
0
0
0
0
0
0
0
0
0
0
0
0
0
0
0
0
0
0
0
0
0
0
0
0
0
0
0
0
0
0
0
0
0
0
0
0
0
0
0
0
0
0
0
0
0
0
0
0
0
0
0
0
0
0
0
0
0
0
0
0
0
0
0.062787
0.0345542
0.0299574
0.025277
0.0221391
0.0200069
0.0184495
0.0172639
0.0163155
0.0155312
0.0148652
0.0142884
0.013781
0.0133294
0.0129237
0.0125563
0.0122216
0.0119149
0.0116326
0.0113716
0.0111293
0.0109037
0.0106929
0.0104953
0.0103096
0.0101346
0.00996925
0.00981273
0.0096642
0.00952296
0.0093884
0.00925997
0.00913718
0.00901959
0.00890681
0.00879848
0.0086943
0.00859397
0.00849724
0.00840387
0.00831366
0.00822641
0.00814195
0.00806012
0.00798077
0.00790376
0.00782898
0.00775631
0.00768565
0.00761689
0.00754994
0.00748472
0.00742115
0.00735916
0.00729868
0.00723968
0.00718211
0.00712595
0.0070712
0.00701789
0.00696606
0.00691579
0.00686716
0.00682028
0.00677526
0.00673217
0.00669106
0.00665187
0.00661444
0.00657846
0.0065434
0.00650856
0.00647297
0.00643548
0.00639479
0.00634954
0.00629849
0.00624068
0.00617569
0.00610392
0.00602685
0.0059473
0.00586957
0.00579952
0.00574441
0.00571257
0.00571276
0.00575329
0.00584092
0.00597955
0.00616883
0.00640279
0.00666868
0.0069461
0.00720659
0.00741395
0.00752531
0.00749321
0.007269
0.0068079
0.0060756
0.00505434
0.00375168
0.00221157
0.000523164
-0.00117361
-0.00269453
-0.00383204
-0.00438264
-0.00417315
-0.00308039
-0.0010476
0.00191728
0.00574919
0.0103367
0.0155354
0.021181
0.0271051
0.0331359
0.0390992
0.0448356
0.0502124
0.0551008
0.0593637
0.0628874
0.0656202
0.0675663
0.068749
0.0691864
0.0688973
0.0679148
0.0662912
0.0640949
0.0614042
0.0583047
0.0548869
0.0512446
0.0474711
0.0436546
0.0398743
0.0361967
0.0326747
0.0293468
0.0262391
0.0233661
0.0207332
0.0183386
0.016175
0.0142311
0.0124933
0.0109464
0.00957462
0.00836204
0.00729324
0.00635351
0.00552907
0.00480712
0.00417599
0.00362505
0.00314472
0.00272644
0.00236254
0.00204624
0.00177152
0.00153308
0.00132627
0.00114697
0.000991619
0.000857068
0.000740582
0.000639773
0.00055256
0.000477133
0.000411919
0.000355548
0.000306835
0.000264749
0.000228396
0.000197001
0.000169895
0.000146495
0.000126298
0.00010887
9.38319e-05
8.08595e-05
6.96704e-05
6.0021e-05
5.17007e-05
4.45275e-05
3.83442e-05
3.30149e-05
2.84224e-05
2.44653e-05
2.10563e-05
1.81197e-05
1.55906e-05
1.34126e-05
1.15373e-05
9.92282e-06
8.53308e-06
7.33697e-06
6.30764e-06
5.42196e-06
4.65999e-06
4.00454e-06
3.4408e-06
2.956e-06
2.53914e-06
2.18075e-06
1.87268e-06
1.6079e-06
1.38035e-06
1.18483e-06
1.01685e-06
8.72558e-07
7.48628e-07
6.42201e-07
5.50821e-07
4.7237e-07
4.05029e-07
3.47234e-07
2.97639e-07
2.55087e-07
2.18583e-07
1.87272e-07
1.6042e-07
1.37395e-07
1.17655e-07
1.00734e-07
8.62319e-08
7.38048e-08
6.31575e-08
5.40366e-08
4.62247e-08
3.9535e-08
3.38074e-08
2.89044e-08
2.47081e-08
2.11172e-08
1.80451e-08
1.54171e-08
1.31696e-08
1.12479e-08
9.60495e-09
8.20059e-09
7.00011e-09
5.97374e-09
5.09596e-09
4.34508e-09
3.70275e-09
3.15354e-09
2.68438e-09
2.28406e-09
1.94283e-09
1.65217e-09
1.40485e-09
1.19504e-09
1.01833e-09
8.71427e-10
7.51491e-10
6.5511e-10
5.77425e-10
5.11789e-10
4.50354e-10
3.85655e-10