# vtk DataFile Version 2.0
FlowField
ASCII
DATASET STRUCTURED_GRID
DIMENSIONS 1602 1 52
POINTS 83304 float
0 0 0
0.1 0 0
0.2 0 0
0.3 0 0
0.4 0 0
0.5 0 0
0.6 0 0
0.7 0 0
0.8 0 0
0.9 0 0
1 0 0
1.1 0 0
1.2 0 0
1.3 0 0
1.4 0 0
1.5 0 0
1.6 0 0
1.7 0 0
1.8 0 0
1.9 0 0
2 0 0
2.1 0 0
2.2 0 0
2.3 0 0
2.4 0 0
2.5 0 0
2.6 0 0
2.7 0 0
2.8 0 0
2.9 0 0
3 0 0
3.1 0 0
3.2 0 0
3.3 0 0
3.4 0 0
3.5 0 0
3.6 0 0
3.7 0 0
3.8 0 0
3.9 0 0
4 0 0
4.1 0 0
4.2 0 0
4.3 0 0
4.4 0 0
4.5 0 0
4.6 0 0
4.7 0 0
4.8 0 0
4.9 0 0
5 0 0
5.1 0 0
5.2 0 0
5.3 0 0
5.4 0 0
5.5 0 0
5.6 0 0
5.7 0 0
5.8 0 0
5.9 0 0
6 0 0
6.1 0 0
6.2 0 0
6.3 0 0
6.4 0 0
6.5 0 0
6.6 0 0
6.7 0 0
6.8 0 0
6.9 0 0
7 0 0
7.1 0 0
7.2 0 0
7.3 0 0
7.4 0 0
7.5 0 0
7.6 0 0
7.7 0 0
7.8 0 0
7.9 0 0
8 0 0
8.1 0 0
8.2 0 0
8.3 0 0
8.4 0 0
8.5 0 0
8.6 0 0
8.7 0 0
8.8 0 0
8.9 0 0
9 0 0
9.1 0 0
9.2 0 0
9.3 0 0
9.4 0 0
9.5 0 0
9.6 0 0
9.7 0 0
9.8 0 0
9.9 0 0
10 0 0
10.1 0 0
10.2 0 0
10.3 0 0
10.4 0 0
10.5 0 0
10.6 0 0
10.7 0 0
10.8 0 0
10.9 0 0
11 0 0
11.1 0 0
11.2 0 0
11.3 0 0
11.4 0 0
11.5 0 0
11.6 0 0
11.7 0 0
11.8 0 0
11.9 0 0
12 0 0
12.1 0 0
12.2 0 0
12.3 0 0
12.4 0 0
12.5 0 0
12.6 0 0
12.7 0 0
12.8 0 0
12.9 0 0
13 0 0
13.1 0 0
13.2 0 0
13.3 0 0
13.4 0 0
13.5 0 0
13.6 0 0
13.7 0 0
13.8 0 0
13.9 0 0
14 0 0
14.1 0 0
14.2 0 0
14.3 0 0
14.4 0 0
14.5 0 0
14.6 0 0
14.7 0 0
14.8 0 0
14.9 0 0
15 0 0
15.1 0 0
15.2 0 0
15.3 0 0
15.4 0 0
15.5 0 0
15.6 0 0
15.7 0 0
15.8 0 0
15.9 0 0
16 0 0
16.1 0 0
16.2 0 0
16.3 0 0
16.4 0 0
16.5 0 0
16.6 0 0
16.7 0 0
16.8 0 0
16.9 0 0
17 0 0
17.1 0 0
17.2 0 0
17.3 0 0
17.4 0 0
17.5 0 0
17.6 0 0
17.7 0 0
17.8 0 0
17.9 0 0
18 0 0
18.1 0 0
18.2 0 0
18.3 0 0
18.4 0 0
18.5 0 0
18.6 0 0
18.7 0 0
18.8 0 0
18.9 0 0
19 0 0
19.1 0 0
19.2 0 0
19.3 0 0
19.4 0 0
19.5 0 0
19.6 0 0
19.7 0 0
19.8 0 0
19.9 0 0
20 0 0
20.1 0 0
20.2 0 0
20.3 0 0
20.4 0 0
20.5 0 0
20.6 0 0
20.7 0 0
20.8 0 0
20.9 0 0
21 0 0
21.1 0 0
21.2 0 0
21.3 0 0
21.4 0 0
21.5 0 0
21.6 0 0
21.7 0 0
21.8 0 0
21.9 0 0
22 0 0
22.1 0 0
22.2 0 0
22.3 0 0
22.4 0 0
22.5 0 0
22.6 0 0
22.7 0 0
22.8 0 0
22.9 0 0
23 0 0
23.1 0 0
23.2 0 0
23.3 0 0
23.4 0 0
23.5 0 0
23.6 0 0
23.7 0 0
23.8 0 0
23.9 0 0
24 0 0
24.1 0 0
24.2 0 0
24.3 0 0
24.4 0 0
24.5 0 0
24.6 0 0
24.7 0 0
24.8 0 0
24.9 0 0
25 0 0
25.1 0 0
25.2 0 0
25.3 0 0
25.4 0 0
25.5 0 0
25.6 0 0
25.7 0 0
25.8 0 0
25.9 0 0
26 0 0
26.1 0 0
26.2 0 0
26.3 0 0
26.4 0 0
26.5 0 0
26.6 0 0
26.7 0 0
26.8 0 0
26.9 0 0
27 0 0
27.1 0 0
27.2 0 0
27.3 0 0
27.4 0 0
27.5 0 0
27.6 0 0
27.7 0 0
27.8 0 0
27.9 0 0
28 0 0
28.1 0 0
28.2 0 0
28.3 0 0
28.4 0 0
28.5 0 0
28.6 0 0
28.7 0 0
28.8 0 0
28.9 0 0
29 0 0
29.1 0 0
29.2 0 0
29.3 0 0
29.4 0 0
29.5 0 0
29.6 0 0
29.7 0 0
29.8 0 0
29.9 0 0
30 0 0
30.1 0 0
30.2 0 0
30.3 0 0
30.4 0 0
30.5 0 0
30.6 0 0
30.7 0 0
30.8 0 0
30.9 0 0
31 0 0
31.1 0 0
31.2 0 0
31.3 0 0
31.4 0 0
31.5 0 0
31.6 0 0
31.7 0 0
31.8 0 0
31.9 0 0
32 0 0
32.1 0 0
32.2 0 0
32.3 0 0
32.4 0 0
32.5 0 0
32.6 0 0
32.7 0 0
32.8 0 0
32.9 0 0
33 0 0
33.1 0 0
33.2 0 0
33.3 0 0
33.4 0 0
33.5 0 0
33.6 0 0
33.7 0 0
33.8 0 0
33.9 0 0
34 0 0
34.1 0 0
34.2 0 0
34.3 0 0
34.4 0 0
34.5 0 0
34.6 0 0
34.7 0 0
34.8 0 0
34.9 0 0
35 0 0
35.1 0 0
35.2 0 0
35.3 0 0
35.4 0 0
35.5 0 0
35.6 0 0
35.7 0 0
35.8 0 0
35.9 0 0
36 0 0
36.1 0 0
36.2 0 0
36.3 0 0
36.4 0 0
36.5 0 0
36.6 0 0
36.7 0 0
36.8 0 0
36.9 0 0
37 0 0
37.1 0 0
37.2 0 0
37.3 0 0
37.4 0 0
37.5 0 0
37.6 0 0
37.7 0 0
37.8 0 0
37.9 0 0
38 0 0
38.1 0 0
38.2 0 0
38.3 0 0
38.4 0 0
38.5 0 0
38.6 0 0
38.7 0 0
38.8 0 0
38.9 0 0
39 0 0
39.1 0 0
39.2 0 0
39.3 0 0
39.4 0 0
39.5 0 0
39.6 0 0
39.7 0 0
39.8 0 0
39.9 0 0
40 0 0
40.1 0 0
40.2 0 0
40.3 0 0
40.4 0 0
40.5 0 0
40.6 0 0
40.7 0 0
40.8 0 0
40.9 0 0
41 0 0
41.1 0 0
41.2 0 0
41.3 0 0
41.4 0 0
41.5 0 0
41.6 0 0
41.7 0 0
41.8 0 0
41.9 0 0
42 0 0
42.1 0 0
42.2 0 0
42.3 0 0
42.4 0 0
42.5 0 0
42.6 0 0
42.7 0 0
42.8 0 0
42.9 0 0
43 0 0
43.1 0 0
43.2 0 0
43.3 0 0
43.4 0 0
43.5 0 0
43.6 0 0
43.7 0 0
43.8 0 0
43.9 0 0
44 0 0
44.1 0 0
44.2 0 0
44.3 0 0
44.4 0 0
44.5 0 0
44.6 0 0
44.7 0 0
44.8 0 0
44.9 0 0
45 0 0
45.1 0 0
45.2 0 0
45.3 0 0
45.4 0 0
45.5 0 0
45.6 0 0
45.7 0 0
45.8 0 0
45.9 0 0
46 0 0
46.1 0 0
46.2 0 0
46.3 0 0
46.4 0 0
46.5 0 0
46.6 0 0
46.7 0 0
46.8 0 0
46.9 0 0
47 0 0
47.1 0 0
47.2 0 0
47.3 0 0
47.4 0 0
47.5 0 0
47.6 0 0
47.7 0 0
47.8 0 0
47.9 0 0
48 0 0
48.1 0 0
48.2 0 0
48.3 0 0
48.4 0 0
48.5 0 0
48.6 0 0
48.7 0 0
48.8 0 0
48.9 0 0
49 0 0
49.1 0 0
49.2 0 0
49.3 0 0
49.4 0 0
49.5 0 0
49.6 0 0
49.7 0 0
49.8 0 0
49.9 0 0
50 0 0
50.1 0 0
50.2 0 0
50.3 0 0
50.4 0 0
50.5 0 0
50.6 0 0
50.7 0 0
50.8 0 0
50.9 0 0
51 0 0
51.1 0 0
51.2 0 0
51.3 0 0
51.4 0 0
51.5 0 0
51.6 0 0
51.7 0 0
51.8 0 0
51.9 0 0
52 0 0
52.1 0 0
52.2 0 0
52.3 0 0
52.4 0 0
52.5 0 0
52.6 0 0
52.7 0 0
52.8 0 0
52.9 0 0
53 0 0
53.1 0 0
53.2 0 0
53.3 0 0
53.4 0 0
53.5 0 0
53.6 0 0
53.7 0 0
53.8 0 0
53.9 0 0
54 0 0
54.1 0 0
54.2 0 0
54.3 0 0
54.4 0 0
54.5 0 0
54.6 0 0
54.7 0 0
54.8 0 0
54.9 0 0
55 0 0
55.1 0 0
55.2 0 0
55.3 0 0
55.4 0 0
55.5 0 0
55.6 0 0
55.7 0 0
55.8 0 0
55.9 0 0
56 0 0
56.1 0 0
56.2 0 0
56.3 0 0
56.4 0 0
56.5 0 0
56.6 0 0
56.7 0 0
56.8 0 0
56.9 0 0
57 0 0
57.1 0 0
57.2 0 0
57.3 0 0
57.4 0 0
57.5 0 0
57.6 0 0
57.7 0 0
57.8 0 0
57.9 0 0
58 0 0
58.1 0 0
58.2 0 0
58.3 0 0
58.4 0 0
58.5 0 0
58.6 0 0
58.7 0 0
58.8 0 0
58.9 0 0
59 0 0
59.1 0 0
59.2 0 0
59.3 0 0
59.4 0 0
59.5 0 0
59.6 0 0
59.7 0 0
59.8 0 0
59.9 0 0
60 0 0
60.1 0 0
60.2 0 0
60.3 0 0
60.4 0 0
60.5 0 0
60.6 0 0
60.7 0 0
60.8 0 0
60.9 0 0
61 0 0
61.1 0 0
61.2 0 0
61.3 0 0
61.4 0 0
61.5 0 0
61.6 0 0
61.7 0 0
61.8 0 0
61.9 0 0
62 0 0
62.1 0 0
62.2 0 0
62.3 0 0
62.4 0 0
62.5 0 0
62.6 0 0
62.7 0 0
62.8 0 0
62.9 0 0
63 0 0
63.1 0 0
63.2 0 0
63.3 0 0
63.4 0 0
63.5 0 0
63.6 0 0
63.7 0 0
63.8 0 0
63.9 0 0
64 0 0
64.1 0 0
64.2 0 0
64.3 0 0
64.4 0 0
64.5 0 0
64.6 0 0
64.7 0 0
64.8 0 0
64.9 0 0
65 0 0
65.1 0 0
65.2 0 0
65.3 0 0
65.4 0 0
65.5 0 0
65.6 0 0
65.7 0 0
65.8 0 0
65.9 0 0
66 0 0
66.1 0 0
66.2 0 0
66.3 0 0
66.4 0 0
66.5 0 0
66.6 0 0
66.7 0 0
66.8 0 0
66.9 0 0
67 0 0
67.1 0 0
67.2 0 0
67.3 0 0
67.4 0 0
67.5 0 0
67.6 0 0
67.7 0 0
67.8 0 0
67.9 0 0
68 0 0
68.1 0 0
68.2 0 0
68.3 0 0
68.4 0 0
68.5 0 0
68.6 0 0
68.7 0 0
68.8 0 0
68.9 0 0
69 0 0
69.1 0 0
69.2 0 0
69.3 0 0
69.4 0 0
69.5 0 0
69.6 0 0
69.7 0 0
69.8 0 0
69.9 0 0
70 0 0
70.1 0 0
70.2 0 0
70.3 0 0
70.4 0 0
70.5 0 0
70.6 0 0
70.7 0 0
70.8 0 0
70.9 0 0
71 0 0
71.1 0 0
71.2 0 0
71.3 0 0
71.4 0 0
71.5 0 0
71.6 0 0
71.7 0 0
71.8 0 0
71.9 0 0
72 0 0
72.1 0 0
72.2 0 0
72.3 0 0
72.4 0 0
72.5 0 0
72.6 0 0
72.7 0 0
72.8 0 0
72.9 0 0
73 0 0
73.1 0 0
73.2 0 0
73.3 0 0
73.4 0 0
73.5 0 0
73.6 0 0
73.7 0 0
73.8 0 0
73.9 0 0
74 0 0
74.1 0 0
74.2 0 0
74.3 0 0
74.4 0 0
74.5 0 0
74.6 0 0
74.7 0 0
74.8 0 0
74.9 0 0
75 0 0
75.1 0 0
75.2 0 0
75.3 0 0
75.4 0 0
75.5 0 0
75.6 0 0
75.7 0 0
75.8 0 0
75.9 0 0
76 0 0
76.1 0 0
76.2 0 0
76.3 0 0
76.4 0 0
76.5 0 0
76.6 0 0
76.7 0 0
76.8 0 0
76.9 0 0
77 0 0
77.1 0 0
77.2 0 0
77.3 0 0
77.4 0 0
77.5 0 0
77.6 0 0
77.7 0 0
77.8 0 0
77.9 0 0
78 0 0
78.1 0 0
78.2 0 0
78.3 0 0
78.4 0 0
78.5 0 0
78.6 0 0
78.7 0 0
78.8 0 0
78.9 0 0
79 0 0
79.1 0 0
79.2 0 0
79.3 0 0
79.4 0 0
79.5 0 0
79.6 0 0
79.7 0 0
79.8 0 0
79.9 0 0
80 0 0
80.1 0 0
80.2 0 0
80.3 0 0
80.4 0 0
80.5 0 0
80.6 0 0
80.7 0 0
80.8 0 0
80.9 0 0
81 0 0
81.1 0 0
81.2 0 0
81.3 0 0
81.4 0 0
81.5 0 0
81.6 0 0
81.7 0 0
81.8 0 0
81.9 0 0
82 0 0
82.1 0 0
82.2 0 0
82.3 0 0
82.4 0 0
82.5 0 0
82.6 0 0
82.7 0 0
82.8 0 0
82.9 0 0
83 0 0
83.1 0 0
83.2 0 0
83.3 0 0
83.4 0 0
83.5 0 0
83.6 0 0
83.7 0 0
83.8 0 0
83.9 0 0
84 0 0
84.1 0 0
84.2 0 0
84.3 0 0
84.4 0 0
84.5 0 0
84.6 0 0
84.7 0 0
84.8 0 0
84.9 0 0
85 0 0
85.1 0 0
85.2 0 0
85.3 0 0
85.4 0 0
85.5 0 0
85.6 0 0
85.7 0 0
85.8 0 0
85.9 0 0
86 0 0
86.1 0 0
86.2 0 0
86.3 0 0
86.4 0 0
86.5 0 0
86.6 0 0
86.7 0 0
86.8 0 0
86.9 0 0
87 0 0
87.1 0 0
87.2 0 0
87.3 0 0
87.4 0 0
87.5 0 0
87.6 0 0
87.7 0 0
87.8 0 0
87.9 0 0
88 0 0
88.1 0 0
88.2 0 0
88.3 0 0
88.4 0 0
88.5 0 0
88.6 0 0
88.7 0 0
88.8 0 0
88.9 0 0
89 0 0
89.1 0 0
89.2 0 0
89.3 0 0
89.4 0 0
89.5 0 0
89.6 0 0
89.7 0 0
89.8 0 0
89.9 0 0
90 0 0
90.1 0 0
90.2 0 0
90.3 0 0
90.4 0 0
90.5 0 0
90.6 0 0
90.7 0 0
90.8 0 0
90.9 0 0
91 0 0
91.1 0 0
91.2 0 0
91.3 0 0
91.4 0 0
91.5 0 0
91.6 0 0
91.7 0 0
91.8 0 0
91.9 0 0
92 0 0
92.1 0 0
92.2 0 0
92.3 0 0
92.4 0 0
92.5 0 0
92.6 0 0
92.7 0 0
92.8 0 0
92.9 0 0
93 0 0
93.1 0 0
93.2 0 0
93.3 0 0
93.4 0 0
93.5 0 0
93.6 0 0
93.7 0 0
93.8 0 0
93.9 0 0
94 0 0
94.1 0 0
94.2 0 0
94.3 0 0
94.4 0 0
94.5 0 0
94.6 0 0
94.7 0 0
94.8 0 0
94.9 0 0
95 0 0
95.1 0 0
95.2 0 0
95.3 0 0
95.4 0 0
95.5 0 0
95.6 0 0
95.7 0 0
95.8 0 0
95.9 0 0
96 0 0
96.1 0 0
96.2 0 0
96.3 0 0
96.4 0 0
96.5 0 0
96.6 0 0
96.7 0 0
96.8 0 0
96.9 0 0
97 0 0
97.1 0 0
97.2 0 0
97.3 0 0
97.4 0 0
97.5 0 0
97.6 0 0
97.7 0 0
97.8 0 0
97.9 0 0
98 0 0
98.1 0 0
98.2 0 0
98.3 0 0
98.4 0 0
98.5 0 0
98.6 0 0
98.7 0 0
98.8 0 0
98.9 0 0
99 0 0
99.1 0 0
99.2 0 0
99.3 0 0
99.4 0 0
99.5 0 0
99.6 0 0
99.7 0 0
99.8 0 0
99.9 0 0
100 0 0
100.1 0 0
100.2 0 0
100.3 0 0
100.4 0 0
100.5 0 0
100.6 0 0
100.7 0 0
100.8 0 0
100.9 0 0
101 0 0
101.1 0 0
101.2 0 0
101.3 0 0
101.4 0 0
101.5 0 0
101.6 0 0
101.7 0 0
101.8 0 0
101.9 0 0
102 0 0
102.1 0 0
102.2 0 0
102.3 0 0
102.4 0 0
102.5 0 0
102.6 0 0
102.7 0 0
102.8 0 0
102.9 0 0
103 0 0
103.1 0 0
103.2 0 0
103.3 0 0
103.4 0 0
103.5 0 0
103.6 0 0
103.7 0 0
103.8 0 0
103.9 0 0
104 0 0
104.1 0 0
104.2 0 0
104.3 0 0
104.4 0 0
104.5 0 0
104.6 0 0
104.7 0 0
104.8 0 0
104.9 0 0
105 0 0
105.1 0 0
105.2 0 0
105.3 0 0
105.4 0 0
105.5 0 0
105.6 0 0
105.7 0 0
105.8 0 0
105.9 0 0
106 0 0
106.1 0 0
106.2 0 0
106.3 0 0
106.4 0 0
106.5 0 0
106.6 0 0
106.7 0 0
106.8 0 0
106.9 0 0
107 0 0
107.1 0 0
107.2 0 0
107.3 0 0
107.4 0 0
107.5 0 0
107.6 0 0
107.7 0 0
107.8 0 0
107.9 0 0
108 0 0
108.1 0 0
108.2 0 0
108.3 0 0
108.4 0 0
108.5 0 0
108.6 0 0
108.7 0 0
108.8 0 0
108.9 0 0
109 0 0
109.1 0 0
109.2 0 0
109.3 0 0
109.4 0 0
109.5 0 0
109.6 0 0
109.7 0 0
109.8 0 0
109.9 0 0
110 0 0
110.1 0 0
110.2 0 0
110.3 0 0
110.4 0 0
110.5 0 0
110.6 0 0
110.7 0 0
110.8 0 0
110.9 0 0
111 0 0
111.1 0 0
111.2 0 0
111.3 0 0
111.4 0 0
111.5 0 0
111.6 0 0
111.7 0 0
111.8 0 0
111.9 0 0
112 0 0
[...]
POINT_DATA 83304

SCALARS pressure float 1
LOOKUP_TABLE default
0
0
0
0
0
0
0
0
0
0
0
0
0
0
0
0
0
0
0
0
0
0
0
0
0
0
0
0
0
0
0
0
0
0
0
0
0
0
0
0
0
0
0
0
0
0
0
0
0
0
0
0
0
0
0
0
0
0
0
0
0
0
0
0
0
0
0
0
0
0
0
0
0
0
0
0
0
0
0
0
0
0
0
0
0
0
0
0
0
0
0
0
0
0
0
0
0
0
0
0
0
0
0
0
0
0
0
0
0
0
0
0
0
0
0
0
0
0
0
0
0
0
0
0
0
0
0
0
0
0
0
0
0
0
0
0
0
0
0
0
0
0
0
0
0
0
0
0
0
0
0
0
0
0
0
0
0
0
0
0
0
0
0
0
0
0
0
0
0
0
0
0
0
0
0
0
0
0
0
0
0
0
0
0
0
0
0
0
0
0
0
0
0
0
0
0
0
0
0
0
0
0
0
0
0
0
0
0
0
0
0
0
0
0
0
0
0
0
0
0
0
0
0
0
0
0
0
0
0
0
0
0
0
0
0
0
0
0
0
0
0
0
0
0
0
0
0
0
0
0
0
0
0
0
0
0
0
0
0
0
0
0
0
0
0
0
0
0
0
0
0
0
0
0
0
0
0
0
0
0
0
0
0
0
0
0
0
0
0
0
0
0
0
0
0
0
0
0
0
0
0
0
0
0
0
0
0
0
0
0
0
0
0
0
0
0
0
0
0
0
0
0
0
0
0
0
0
0
0
0
0
0
0
0
0
0
0
0
0
0
0
0
0
0
0
0
0
0
0
0
0
0
0
0
0
0
0
0
0
0
0
0
0
0
0
0
0
0
0
0
0
0
0
0
0
0
0
0
0
0
0
0
0
0
0
0
0
0
0
0
0
0
0
0
0
0
0
0
0
0
0
0
0
0
0
0
0
0
0
0
0
0
0
0
0
0
0
0
0
0
0
0
0
0
0
0
0
0
0
0
0
0
0
0
0
0
0
0
0
0
0
0
0
0
0
0
0
0
0
0
0
0
0
0
0
0
0
0
0
0
0
0
0
0
0
0
0
0
0
0
0
0
0
0
0
0
0
0
0
0
0
0
0
0
0
0
0
0
0
0
0
0
0
0
0
0
0
0
0
0
0
0
0
0
0
0
0
0
0
0
0
0
0
0
0
0
0
0
0
0
0
0
0
0
0
0
0
0
0
0
0
0
0
0
0
0
0
0
0
0
0
0
0
0
0
0
0
0
0
0
0
0
0
0
0
0
0
0
0
0
0
0
0
0
0
0
0
0
0
0
0
0
0
0
0
0
0
0
0
0
0
0
0
0
0
0
0
0
0
0
0
0
0
0
0
0
0
0
0
0
0
0
0
0
0
0
0
0
0
0
0
0
0
0
0
0
0
0
0
0
0
0
0
0
0
0
0
0
0
0
0
0
0
0
0
0
0
0
0
0
0
0
0
0
0
0
0
0
0
0
0
0
0
0
0
0
0
0
0
0
0
0
0
0
0
0
0
0
0
0
0
0
0
0
0
0
0
0
0
0
0
0
0
0
0
0
0
0
0
0
0
0
0
0
0
0
0
0
0
0
0
0
0
0
0
0
0
0
0
0
0
0
0
0
0
0
0
0
0
0
0
0
0
0
0
0
0
0
0
0
0
0
0
0
0
0
0
0
0
0
0
0
0
0
0
0
0
0
0
0
0
0
0
0
0
0
0
0
0
0
0
0
0
0
0
0
0
0
0
0
0
0
0
0
0
0
0
0
0
0
0
0
0
0
0
0
0
0
0
0
0
0
0
0
0
0
0
0
0
0
0
0
0
0
0
0
0
0
0
0
0
0
0
0
0
0
0
0
0
0
0
0
0
0
0
0
0
0
0
0
0
0
0
0
0
0
0
0
0
0
0
0
0
0
0
0
0
0
0
0
0
0
0
0
0
0
0
0
0
0
0
0
0
0
0
0
0
0
0
0
0
0
0
0
0
0
0
0
0
0
0
0
0
0
0
0
0
0
0
0
0
0
0
0
0
0
0
0
0
0
0
0
0
0
0
0
0
0
0
0
0
0
0
0
0
0
0
0
0
0
0
0
0
0
0
0
0
0
0
0
0
0
0
0
0
0
0
0
0
0
0
0
0
0
0
0
0
0
0
0
0
0
0
0
0
0
0
0
0
0
0
0
0
0
0
0
0
0
0
0
0
0
0
0
0
0
0
0
0
0
0
0
0
0
0
0
0
0
0
0
0
0
0
0
0
0
0
0
0
0
0
0
0
0
0
0
0
0
0
0
0
0
0
0
0
0
0
0
0
0
0
0
0
0
0
0
0
0
0
0
0
0
0
0
0
0
0
0
0
0
0
0
0
0
0
0
0
0
0
0
0
0
0
0
0
0
0
0
0
0
0
0
0
0
0
0
0
0
0
0
0
0
0
0
0
0
0
0
0
0
0
0
0
0
0
0
0
0
0
0
0
0
0
0
0
0
0
0
0
0
0
0
0
0
0
0
0
0
0
0
0
0
0
0
0
0
0
0
0
0
0
0
0
0
0
0
0
0
0
0
0
0
0
0
0
0
0
0
0
0
0
0
0
0
0
0
0
0
0
0
0
0
0
0
0
0
0
0
0
0
0
0
0
0
0
0
0
0
0
0
0
0
0
0
0
0
0
0
0
0
0
0
0
0
0
0
0
0
0
0
0
0
0
0
0
0
0
0
0
0
0
0
0
0
0
0
0
0
0
0
0
0
0
0
0
0
0
0
0
0
0
0
0
0
0
0
0
0
0
0
0
0
0
0
0
0
0
0
0
0
0
0
0
0
0
0
0
0
0
0
0
0
0
0
0
0
0
0
0
0
0
0
0
0
0
0
0
0
0
0
0
0
0
0
0
0
0
0
0
0
0
0
0
0
0
0
0
0
0
0
0
0
0
0
0
0
0
0
0
0
0
0
0
0
0
0
0
0
0
0
0
0
0
0
0
0
0
0
0
0
0
0
0
0
0
0
0
0
0
0
0
0
0
0
0
0
0
0
0
0
0
0
0
0
0
0
0
0
0
0
0
0
0
0
0
0
0
0
0
0
0
0
0
0
0
0
0
0
0
0
0
0
0
0
0
0
0
0
0
0
0
0
0
0
0
0
0
0
0
0
0
0
0
0
0
0
0
0
0
0
0
0
0
0
0
0
0
0
0
0
0
0
0
0
0
0
0
0
0
0
0
0
0
0
0
0
0
0
0
0
0
0
0
0
0
0
0
0
0
0
0
0
0
0
0
0
0
0
0
0
0
0
0
0
0
0
0
0
0
0
0
0
0
0
0
0
0
0
0
0
0
0
0
0
0
0
0
0
0
0
0
0
0
0
0
0
0
0
0
0
0
0
0
0
0
0
0
0
0
0
0
0
0
0
0
0
0
0
0
0
0
0
0
0
0
0
0
0
0
0
0
0
0
0
0
0
0
0
0
0
0
0
0
0
0
0
0
0
0
0
0
0
0
0
0
0
0
0
0
0
0
0
0
0
0
0
0
0
0
0
0
0
0
0
0
0
0
0
0
0
0
0
0
0
0
0
0
0
0
0
0
0
0
0
0
0
0
0
0
0
0
0
0
0
0
0
0
0
0
0
0
0
0
0.0776415
0.052903
0.0436505
0.0357426
0.03048
0.0271088
0.0248019
0.023116
0.0218008
0.0207277
0.0198235
0.0190436
0.0183596
0.0177519
0.0172066
0.0167134
0.0162643
0.0158532
0.0154749
0.0151254
0.0148012
0.0144993
0.0142174
0.0139533
0.0137051
0.0134714
0.0132506
0.0130416
0.0128434
0.0126549
0.0124753
0.0123039
0.0121401
0.0119833
0.0118328
0.0116884
0.0115494
0.0114156
0.0112866
0.0111621
0.0110418
0.0109254
0.0108128
0.0107037
0.0105979
0.0104952
0.0103956
0.0102987
0.0102046
0.010113
0.0100239
0.00993712
0.00985263
0.00977031
0.00969007
0.00961184
0.00953553
0.00946108
0.00938842
0.00931746
0.00924815
0.00918042
0.0091142
0.00904943
0.00898606
0.00892406
0.00886341
0.00880411
0.00874619
0.00868973
0.00863482
0.00858163
0.00853031
0.00848108
0.00843414
0.00838966
0.00834777
0.00830846
0.00827157
0.00823675
0.00820337
0.00817049
0.00813692
0.00810117
0.00806155
0.00801633
0.0079639
0.00790301
0.00783309
0.00775456
0.00766916
0.00758023
0.00749288
0.00741402
0.00735218
0.00731703
0.0073187
0.00736666
0.00746848
0.00762828
0.00784516
0.00811166
0.00841237
0.00872299
0.00900994
0.00923066
0.00933506
0.00926802
0.00897344
0.00840052
0.00751148
0.00628945
0.00474806
0.00294344
0.000983216
-0.000969506
-0.00270396
-0.00398342
-0.0045733
-0.0042683
-0.00291549
-0.000430666
0.00320064
0.00792723
0.0136428
0.0201997
0.0274229
0.0351271
0.0431193
0.0511924
0.0591429
0.0667925
0.0739541
0.0803978
0.0858947
0.0903007
0.0935748
0.0957217
0.0967388
0.0966186
0.0953821
0.0930986
0.0898834
0.0858827
0.0812593
0.0761818
0.0708152
0.0653128
0.0598102
0.0544203
0.0492319
0.0443101
0.0396991
0.0354247
0.0314978
0.0279181
0.0246764
0.0217575
0.0191423
0.0168093
0.0147356
0.0128985
0.0112754
0.00984507
0.00858723
0.00748317
0.00651569
0.00566913
0.00492932
0.00428351
0.00372034
0.00322965
0.00280245
0.0024308
0.00210766
0.00182687
0.00158299
0.00137128
0.00118757
0.0010282
0.000890018
0.000770231
0.000666425
0.000576493
0.0004986
0.000431151
0.000372759
0.00032222
0.000278485
0.000240647
0.000207917
0.00017961
0.000155133
0.000133971
0.000115679
9.98692e-05
8.62079e-05
7.44046e-05
6.42082e-05
5.54013e-05
4.77957e-05
4.12284e-05
3.55586e-05
3.06643e-05
2.644e-05
2.27945e-05
1.9649e-05
1.69352e-05
1.45943e-05
1.25753e-05
1.08341e-05
9.33273e-06
8.03834e-06
6.92255e-06
5.96083e-06
5.13203e-06
4.41787e-06
3.80258e-06
3.27254e-06
2.816e-06
2.42282e-06
2.08425e-06
1.79276e-06
1.54181e-06
1.32582e-06
1.13992e-06
9.79956e-07
8.42322e-07
7.23917e-07
6.22069e-07
5.34475e-07
4.59151e-07
3.94386e-07
3.38708e-07
2.90848e-07
2.49715e-07
2.14368e-07
1.83998e-07
1.57907e-07
1.35496e-07
1.16248e-07
9.9719e-08
8.55275e-08
7.33446e-08
6.28874e-08
5.39128e-08
4.62118e-08
3.96046e-08
3.39366e-08
2.90752e-08
2.49062e-08
2.13314e-08
1.82668e-08
1.56398e-08
1.33884e-08
1.14591e-08
9.8062e-09
8.39025e-09
7.17751e-09
6.13901e-09
5.24986e-09
4.48873e-09
3.8373e-09
3.27987e-09
2.80297e-09
2.39505e-09
2.04619e-09
1.74791e-09
1.49288e-09
1.27481e-09
1.08832e-09
9.28759e-10
7.92209e-10
6.75337e-10
5.75337e-10
4.89827e-10
4.16772e-10
3.54415e-10
3.01249e-10
2.56016e-10
2.17717e-10
1.85598e-10
1.59075e-10
1.376e-10
1.20482e-10
1.06749e-10
9.51005e-11
8.40369e-11
7.21548e-11
5.85499e-11
4.31909e-11
2.71103e-11
1.22855e-11
1.1756e-12
-3.9984e-12
-2.03591e-12
6.6533e-12
1.9876e-11
3.40146e-11
4.48707e-11
4.87806e-11
4.36842e-11
2.98161e-11
9.78693e-12
-1.20056e-11
-3.04916e-11
-4.12657e-11
-4.1768e-11
-3.19737e-11
-1.43998e-11
6.56733e-12
2.58261e-11
3.88674e-11
4.28797e-11
3.73654e-11
2.41322e-11
6.70054e-12
-1.06777e-11
-2.4106e-11
-3.09488e-11
-3.03412e-11
-2.32154e-11
-1.18868e-11
6.47055e-13
1.14863e-11
1.84877e-11
2.06564e-11
1.82126e-11
1.23648e-11
4.88576e-12
-2.37497e-12
-7.91847e-12
-1.08717e-11
-1.10729e-11
-8.98043e-12
-5.45833e-12
-1.51102e-12
1.96252e-12
4.34263e-12
5.36602e-12
5.10845e-12
3.89665e-12
2.18452e-12
4.28787e-13
-1.00803e-12
-1.9123e-12
-2.2293e-12
-2.03689e-12
-1.4974e-12
-8.03303e-13
-1.30033e-13
3.95715e-13
7.09395e-13
8.05584e-13
7.2347e-13
5.2699e-13
2.85233e-13
5.71475e-14
-1.17436e-13
-2.20369e-13
-2.52616e-13
-2.28563e-13
-1.69267e-13
-9.63507e-14
-2.75975e-14
2.53694e-14
5.74784e-14
6.91837e-14
6.46653e-14
4.98582e-14
3.07572e-14
1.22497e-14
-2.46217e-15
-1.19247e-14
-1.61369e-14
-1.6072e-14
-1.31699e-14
-8.91026e-15
-4.52157e-15
-8.37156e-16
1.72468e-15
3.09497e-15
3.44535e-15
3.07202e-15
2.29731e-15
1.40114e-15
5.85027e-16
-3.65244e-17
-4.25302e-16
-5.98505e-16
-6.05301e-16
-5.06147e-16
-3.57723e-16
-2.04176e-16
-7.39348e-17
1.94188e-17
7.39184e-17
9.51211e-17
9.22314e-17
7.50681e-17
5.20978e-17
2.94783e-17
1.08876e-17
-2.13898e-18
-9.62604e-18
-1.25324e-17
-1.22109e-17
-1.00168e-17
-7.0734e-18
-4.1737e-18
-1.77951e-18
-7.83761e-20
9.35373e-19
1.37978e-18
1.41861e-18
1.21462e-18
9.02605e-19
5.78506e-19
2.99758e-19
9.20202e-20
-4.15772e-20
-1.11331e-19
-1.33504e-19
-1.25074e-19
-1.00629e-19
-7.10138e-20
-4.31794e-20
-2.07531e-20
-4.90387e-21
4.76529e-21
9.46164e-21
1.06486e-20
9.69589e-21
7.70155e-21
5.43715e-21
3.3711e-21
1.73044e-21
5.73663e-22
-1.42247e-22
-5.08982e-22
-6.30339e-22
-6.00429e-22
-4.93422e-22
-3.61159e-22
-2.354e-22
-1.3219e-22
-5.66748e-23
-7.37979e-24
2.04706e-23
3.2674e-23
3.46809e-23
3.09242e-23
2.46228e-23
1.78645e-23
1.1825e-23
7.02188e-24
3.54895e-24
1.26323e-24
-8.12931e-26
-7.48374e-25
-9.72358e-25
-9.38083e-25
-7.77816e-25
-5.77454e-25
-3.8658e-25
-2.2897e-25
-1.11788e-25
-3.27056e-26
1.50685e-26
3.95893e-26
4.83677e-26
4.75396e-26
4.16483e-26
3.37686e-26
2.57847e-26
1.87027e-26
1.29369e-26
8.53848e-27
5.36412e-27
3.18847e-27
1.77313e-27
9.03558e-28
4.04713e-28
1.43762e-28
2.5906e-29
-1.26851e-29
-1.24432e-29
2.79171e-30
2.02541e-29
3.41071e-29
4.25229e-29
4.57518e-29
4.49278e-29
4.13908e-29
3.63451e-29
3.07254e-29
2.51777e-29
2.00961e-29
1.56801e-29
1.19929e-29
9.01123e-30
6.66313e-30
4.85538e-30
3.49084e-30
2.47873e-30
1.73974e-30
1.20784e-30
8.30003e-31
5.64846e-31
3.80866e-31
2.54561e-31
1.68715e-31
1.1092e-31
7.23596e-32
4.68523e-32
3.01182e-32
1.9226e-32
1.21901e-32
7.67837e-33
4.80567e-33
2.98907e-33
1.84792e-33
1.13569e-33
6.93948e-34
4.21637e-34
2.5477e-34
1.53111e-34
9.1529e-35
5.44314e-35
3.22047e-35
1.89587e-35
1.1106e-35
6.47434e-36
3.75631e-36
2.16914e-36
1.24681e-36
7.13405e-37
4.06366e-37
2.30449e-37
1.30116e-37
7.31498e-38
4.09492e-38
2.2827e-38
1.26721e-38
7.00587e-39
3.85757e-39
2.11554e-39
1.15559e-39
6.28754e-40
3.40777e-40
1.83988e-40
9.89586e-41
5.3025e-41
2.83065e-41
1.50552e-41
7.97801e-42
4.21236e-42
2.21613e-42
1.16175e-42
6.06873e-43
3.15907e-43
1.63874e-43
8.47155e-44
4.36446e-44
2.24091e-44
1.14671e-44
5.84835e-45
2.97284e-45
1.50619e-45
7.60623e-46
3.82868e-46
1.92101e-46
9.6077e-47
4.78994e-47
2.38051e-47
1.17936e-47
5.82468e-48
2.86783e-48
1.40766e-48
6.88838e-49
3.3606e-49
1.63458e-49
7.9267e-50
3.83252e-50
1.84752e-50
8.88001e-51
4.25565e-51
2.03354e-51
9.68909e-52
4.60322e-52
2.1807e-52
1.03013e-52
4.85244e-53
2.27931e-53
1.06765e-53
4.98704e-54
2.32302e-54
1.0791e-54
4.99897e-55
2.30947e-55
1.06405e-55
4.88919e-56
2.24049e-56
1.02396e-56
4.66732e-57
2.12177e-57
9.62017e-58
4.35035e-58
1.96214e-58
8.82678e-59
3.96049e-59
1.77245e-59
7.91193e-60
3.52273e-60
1.56448e-60
6.93038e-61
3.0623e-61
1.34973e-61
5.93411e-62
2.60245e-62
1.13849e-62
4.96823e-63
2.16274e-63
9.3916e-64
4.06831e-64
1.75805e-64
7.57871e-65
3.25919e-65
1.39823e-65
5.98422e-66
2.55505e-66
1.08832e-66
4.62473e-67
1.9606e-67
8.29224e-68
3.49894e-68
1.47294e-68
6.18623e-69
2.59215e-69
1.08365e-69
4.5198e-70
1.88085e-70
7.80901e-71
3.23481e-71
1.33695e-71
5.51317e-72
2.26834e-72
9.31191e-73
3.81415e-73
1.55879e-73
6.3564e-74
2.58626e-74
1.04997e-74
4.25326e-75
1.71915e-75
6.93359e-76
2.79032e-76
1.12049e-76
4.48972e-77
1.79512e-77
7.16197e-78
2.85128e-78
1.13271e-78
4.49024e-79
1.77623e-79
7.01143e-80
2.76183e-80
1.08561e-80
4.25829e-81
1.66682e-81
6.51084e-82
2.53793e-82
9.87238e-83
3.83235e-83
1.48461e-83
5.73938e-84
2.21425e-84
8.52514e-85
3.27559e-85
1.25601e-85
4.80638e-86
1.83554e-86
6.99575e-87
2.66091e-87
1.01008e-87
3.82659e-88
1.44678e-88
5.4592e-89
2.05586e-89
7.7268e-90
2.89834e-90
1.08503e-90
4.05401e-91
1.51174e-91
5.62627e-92
2.08987e-92
7.74772e-93
2.86674e-93
1.05868e-93
3.90212e-94
1.4355e-94
5.27078e-95
1.93159e-95
7.06525e-96
2.57937e-96
9.39887e-97
3.41834e-97
1.24089e-97
4.4961e-98
1.62601e-98
5.8694e-99
2.11472e-99
7.60507e-100
2.72989e-100
9.78093e-101
3.49793e-101
1.24865e-101
4.44908e-102
1.58234e-102
5.61739e-103
1.99055e-103
7.04078e-104
2.48586e-104
8.7608e-105
3.08193e-105
1.08222e-105
3.7934e-106
1.32726e-106
4.6356e-107
1.61613e-107
5.62433e-108
1.95385e-108
6.77544e-109
2.34538e-109
8.10436e-110
2.79548e-110
9.62563e-111
3.30854e-111
1.13522e-111
3.88835e-112
1.32951e-112
4.53793e-113
1.54621e-113
5.25926e-114
1.78578e-114
6.05315e-115
2.04826e-115
6.91893e-116
2.33318e-116
7.85437e-117
2.63956e-117
8.85546e-118
2.96585e-118
9.91631e-119
3.30989e-119
1.10291e-119
3.66889e-120
1.21842e-120
4.03948e-121
1.33698e-121
4.41773e-122
1.45729e-122
4.79917e-123
1.57784e-123
5.17892e-124
1.69705e-124
5.55174e-125
1.8132e-125
5.91218e-126
1.92457e-126
6.2547e-127
2.0294e-127
6.5738e-128
2.12597e-128
6.86418e-129
2.21266e-129
7.1209e-130
2.28798e-130
7.33948e-131
2.3506e-131
7.51607e-132
2.39941e-132
7.64754e-133
2.43357e-133
7.73161e-134
2.45247e-134
7.76684e-135
2.45581e-135
7.75275e-136
2.44359e-136
7.6898e-137
2.41611e-137
7.57935e-138
2.37392e-138
7.42364e-139
2.31786e-139
7.22569e-140
2.24902e-140
6.98923e-141
2.16865e-141
6.71857e-142
2.07821e-142
6.41846e-143
1.97925e-143
6.094e-144
1.87342e-144
5.75042e-145
1.76237e-145
5.39302e-146
1.64779e-146
5.02701e-147
1.53129e-147
4.65738e-148
1.41439e-148
4.28881e-149
1.29852e-149
3.92559e-150
1.18497e-150
3.57153e-151
1.07485e-151
3.22994e-152
9.69143e-153
2.90357e-153
8.68619e-154
2.59465e-154
7.73898e-155
2.30485e-155
6.85423e-156
2.03532e-156
6.03481e-157
1.78671e-157
5.28209e-158
1.55926e-158
4.59616e-159
1.3528e-159
3.97594e-160
1.16684e-160
3.41938e-161
1.00058e-161
2.92365e-162
8.5304e-163
2.48533e-163
7.23054e-164
2.10054e-164
6.09345e-165
1.76511e-165
5.10571e-166
1.47474e-166
4.25359e-167
1.22511e-167
3.52348e-168
1.01193e-168
2.90208e-169
8.31099e-170
2.37673e-170
6.7872e-171
1.93548e-171
5.51152e-172
1.56726e-172
4.45043e-173
1.26197e-173
3.57347e-174
1.01046e-174
2.85327e-175
8.0456e-176
2.26552e-176
6.37048e-177
1.78885e-177
5.01614e-178
1.40464e-178
3.92788e-179
1.09686e-179
3.05875e-180
8.51802e-181
2.36884e-181
6.57862e-182
1.82448e-182
5.05297e-183
1.39753e-183
3.85995e-184
1.06466e-184
2.93255e-185
8.0666e-186
2.21588e-186
6.07871e-187
1.66529e-187
4.55596e-188
1.24475e-188
3.39626e-189
9.2541e-190
2.51816e-190
6.84303e-191
1.85708e-191
5.03307e-192
1.36224e-192
3.68209e-193
9.93931e-194
2.67941e-194
7.21349e-195
1.93943e-195
5.20748e-196
1.39639e-196
3.73947e-197
1.00009e-197
2.67115e-198
7.12498e-199
1.89801e-199
5.04943e-200
1.34158e-200
3.55978e-201
9.43325e-202
2.4965e-202
6.59837e-203
1.74171e-203
4.59145e-204
1.20881e-204
3.17838e-205
8.34621e-206
2.18883e-206
5.73287e-207
1.49959e-207
3.91754e-208
1.02211e-208
2.6633e-209
6.93085e-210
1.80134e-210
4.67575e-211
1.21213e-211
3.1383e-212
8.11495e-213
2.09567e-213
5.40517e-214
1.39234e-214
3.58202e-215
9.20367e-216
2.36181e-216
6.05314e-217
1.54942e-217
3.96104e-218
1.01135e-218
2.579e-219
6.56832e-220
1.67076e-220
4.24452e-221
1.07696e-221
2.72917e-222
6.90746e-223
1.74608e-223
4.40831e-224
1.11158e-224
2.79942e-225
7.04139e-226
1.76893e-226
4.43841e-227
1.11226e-227
2.78389e-228
6.95923e-229
1.73755e-229
4.3329e-230
1.07916e-230
2.68451e-231
6.66976e-232
1.6551e-232
4.10212e-233
1.01546e-233
2.51067e-234
6.19994e-235
1.52918e-235
3.76704e-236
9.26867e-237
2.27776e-237
5.59081e-238
1.37062e-238
3.3561e-239
8.20785e-240
2.00494e-240
4.89162e-241
1.19202e-241
2.90129e-242
7.05309e-243
1.71257e-243
4.15336e-244
1.00608e-244
2.43415e-245
5.88227e-246
1.4198e-246
3.42289e-247
8.24222e-248
1.98235e-248
4.76216e-249
1.14265e-249
2.73849e-250
6.55534e-251
1.56736e-251
3.7431e-252
8.92862e-253
2.12729e-253
5.06245e-254
1.20333e-254
2.85695e-255
6.77506e-256
1.60478e-256
3.79677e-257
8.97234e-258
2.11784e-258
4.99315e-259
1.17585e-259
2.76585e-260
6.49832e-261
1.52501e-261
3.57471e-262
8.36968e-263
1.95739e-263
4.5724e-264
1.06687e-264
2.48647e-265
5.78835e-266
1.34595e-266
3.12612e-267
7.25249e-268
1.68063e-268
3.89011e-269
8.99407e-270
2.0771e-270
4.79141e-271
1.10402e-271
2.54096e-272
5.84153e-273
1.34142e-273
3.07688e-274
7.04964e-275
1.61337e-275
3.68816e-276
8.42165e-277
1.92087e-277
4.37632e-278
9.9594e-279
2.26397e-279
5.14071e-280
1.16597e-280
2.64162e-281
5.97814e-282
1.35138e-282
3.05146e-283
6.8826e-284
1.55066e-284
3.48977e-285
7.84506e-286
1.76163e-286
3.95142e-287
8.85343e-288
1.98148e-288
4.42986e-289
9.89263e-290
2.20676e-290
4.91724e-291
1.09449e-291
2.43346e-292
5.40456e-293
1.19901e-293
2.6571e-294
5.88194e-295
1.30064e-295
2.87292e-296
6.33892e-297
1.39712e-297
3.07597e-298
6.76485e-299
1.48615e-299
3.26136e-300
7.14929e-301
1.56552e-301
3.4244e-302
7.48241e-303
1.63317e-303
3.56084e-304
7.75546e-305
1.68731e-305
3.66706e-306
7.96112e-307
1.72649e-307
3.74017e-308
8.09382e-309
1.74965e-309
3.77822e-310
8.15003e-311
1.75618e-311
3.78022e-312
8.12836e-313
1.74594e-313
3.74622e-314
8.02968e-315
1.71927e-315
3.6773e-316
7.857e-317
1.67697e-317
3.57551e-318
7.61543e-319
1.62034e-319
3.44463e-320
7.31711e-321
1.55137e-321
3.21143e-322
6.42285e-323
9.88131e-324
0
0
0
0
0
0
0
0
0
0
0
0
0
0
0
0
0
0
0
0
0
0
0
0
0
0
0
0
0
0
0
0
0
0
0
0
0
0
0
0
0
0
0
0
0
0
0
0
0
0
0
0
0
0
0
0
0
0
0
0
0
0
0
0
0
0
0
0
0
0
0
0
0
0
0
0
0
0
0
0
0
0
0
0
0
0
0
0
0
0
0
0
0
0
0
0
0
0
0
0
0
0
0
0
0
0
0
0
0
0
0
0
0
0
0
0
0
0
0
0
0
0
0
0
0
0
0
0
0
0
0
0
0
0
0
0
0
0
0
0
0
0
0
0
0
0
0
0
0
0
0
0
0
0
0
0
0
0
0
0
0
0
0
0
0
0
0
0
0
0
0
0
0
0
0
0
0
0
0
0
0
0
0
0
0
0
0
0
0
0
0
0
0
0
0
0
0
0
0
0
0
0
0
0
0
0
0
0
0
0
0
0
0
0
0
0
0
0
0
0
0
0
0
0
0
0
0
0
0
0
0
0
0
0
0
0
0
0
0
0
0
0
0
0
0
0
0
0
0
0
0
0
0
0
0
0
0
0
0
0
0
0
0
0
0
0
0
0
0
0
0
0
0
0
0
0
0
0
0
0
0
0
0
0
0
0
0
0
0
0
0
0
0
0
0
0
0
0
0
0
0
0
0
0
0
0
0
0
0
0
0
0
0
0
0
0
0
0
0
0
0
0
0
0
0
0
0
0
0
0
0
0
0
0
0
0
0
0
0
0
0
0
0
0
0
0
0
0
0
0
0
0
0
0
0
0
0
0
0
0
0
0
0
0
0
0
0
0
0
0
0
0
0
0
0
0
0
0
0
0
0
0
0
0
0
0
0
0
0
0
0
0
0
0
0
0
0
0
0
0
0
0
0
0
0
0
0
0
0
0
0
0
0
0
0
0
0
0
0
0
0
0
0
0
0
0
0
0
0
0
0
0
0
0
0
0
0
0
0
0
0
0
0
0
0
0
0
0
0
0
0
0
0
0
0
0
0
0
0
0
0
0
0
0
0
0
0
0
0
0
0
0
0
0
0
0
0
0
0
0
0
0
0
0
0
0
0
0
0
0
0
0
0
0
0
0
0
0.062787
0.0345542
0.0299574
0.025277
0.0221391
0.0200069
0.0184495
0.0172639
0.0163155
0.0155312
0.0148652
0.0142884
0.013781
0.0133294
0.0129237
0.0125563
0.0122216
0.0119149
0.0116326
0.0113716
0.0111293
0.0109037
0.0106929
0.0104953
0.0103096
0.0101346
0.00996925
0.00981273
0.00966419
0.00952296
0.0093884
0.00925997
0.00913718
0.00901959
0.0089068
0.00879848
0.00869429
0.00859396
0.00849723
0.00840386
0.00831364
0.00822639
0.00814193
0.0080601
0.00798075
0.00790376
0.007829
0.00775637
0.00768576
0.00761708
0.00755024
0.00748518
0.0074218
0.00736006
0.00729987
0.00724119
0.00718396
0.00712812
0.00707361
0.00702038
0.00696839
0.00691758
0.0068679
0.00681931
0.00677177
0.00672525
0.00667973
0.00663521
0.00659171
0.00654928
0.00650801
0.00646799
0.00642936
0.00639227
0.00635689
0.00632335
0.00629175
0.00626212
0.00623436
0.00620823
0.00618328
0.00615886
0.00613409
0.00610785
0.0060789
0.0060459
0.00600759
0.00596295
0.00591145
0.00585323
0.00578942
0.00572234
0.00565562
0.00559429
0.00554465
0.00551395
0.00550991
0.00553991
0.00561006
0.00572405
0.00588196
0.00607904
0.00630467
0.00654159
0.00676556
0.00694547
0.00704435
0.00702106
0.00683298
0.00644029
0.00581162
0.00492966
0.00379797
0.00245044
0.000959384
-0.00055959
-0.00195017
-0.0030298
-0.00361201
-0.00352927
-0.00265244
-0.000908674
0.00171561
0.00517856
0.00939047
0.0142255
0.019533
0.0251539
0.0309246
0.0366753
0.0422451
0.0475002
0.0523156
0.0565544
0.0600927
0.0628668
0.0648791
0.0661597
0.0667323
0.0666136
0.0658291
0.0644233
0.0624583
0.0600071
0.05715
0.0539714
0.0505587
0.0469987
0.0433749
0.0397627
0.0362272
0.032821
0.0295844
0.0265452
0.0237209
0.0211197
0.0187425
0.0165848
0.0146379
0.0128901
0.0113281
0.00993762
0.00870401
0.00761283
0.00665016
0.00580281
0.00505846
0.00440573
0.00383423
0.00333453
0.00289815
0.00251745
0.00218565
0.0018967
0.00164527
0.00142662
0.00123659
0.00107153
0.000928223
0.000803859
0.000695976
0.000602425
0.000521329
0.000451051
0.000390166
0.000337433
0.000291772
0.000252243
0.000218031
0.000188427
0.000162815
0.000140662
0.000121504
0.000104939
9.06181e-05
7.82399e-05
6.75426e-05
5.82994e-05
5.03138e-05
4.34158e-05
3.74582e-05
3.23136e-05
2.78717e-05
2.4037e-05
2.07271e-05
1.78705e-05
1.54055e-05
1.32787e-05
1.14439e-05
9.86136e-06
8.49649e-06
7.31954e-06
6.30477e-06
5.42996e-06
4.67589e-06
4.02601e-06
3.46598e-06