# vtk DataFile Version 2.0
FlowField
ASCII
DATASET STRUCTURED_GRID
DIMENSIONS 1602 1 52
POINTS 83304 float
0 0 0
0.1 0 0
0.2 0 0
0.3 0 0
0.4 0 0
0.5 0 0
0.6 0 0
0.7 0 0
0.8 0 0
0.9 0 0
1 0 0
1.1 0 0
1.2 0 0
1.3 0 0
1.4 0 0
1.5 0 0
1.6 0 0
1.7 0 0
1.8 0 0
1.9 0 0
2 0 0
2.1 0 0
2.2 0 0
2.3 0 0
2.4 0 0
2.5 0 0
2.6 0 0
2.7 0 0
2.8 0 0
2.9 0 0
3 0 0
3.1 0 0
3.2 0 0
3.3 0 0
3.4 0 0
3.5 0 0
3.6 0 0
3.7 0 0
3.8 0 0
3.9 0 0
4 0 0
4.1 0 0
4.2 0 0
4.3 0 0
4.4 0 0
4.5 0 0
4.6 0 0
4.7 0 0
4.8 0 0
4.9 0 0
5 0 0
5.1 0 0
5.2 0 0
5.3 0 0
5.4 0 0
5.5 0 0
5.6 0 0
5.7 0 0
5.8 0 0
5.9 0 0
6 0 0
6.1 0 0
6.2 0 0
6.3 0 0
6.4 0 0
6.5 0 0
6.6 0 0
6.7 0 0
6.8 0 0
6.9 0 0
7 0 0
7.1 0 0
7.2 0 0
7.3 0 0
7.4 0 0
7.5 0 0
7.6 0 0
7.7 0 0
7.8 0 0
7.9 0 0
8 0 0
8.1 0 0
8.2 0 0
8.3 0 0
8.4 0 0
8.5 0 0
8.6 0 0
8.7 0 0
8.8 0 0
8.9 0 0
9 0 0
9.1 0 0
9.2 0 0
9.3 0 0
9.4 0 0
9.5 0 0
9.6 0 0
9.7 0 0
9.8 0 0
9.9 0 0
10 0 0
10.1 0 0
10.2 0 0
10.3 0 0
10.4 0 0
10.5 0 0
10.6 0 0
10.7 0 0
10.8 0 0
10.9 0 0
11 0 0
11.1 0 0
11.2 0 0
11.3 0 0
11.4 0 0
11.5 0 0
11.6 0 0
11.7 0 0
11.8 0 0
11.9 0 0
12 0 0
12.1 0 0
12.2 0 0
12.3 0 0
12.4 0 0
12.5 0 0
12.6 0 0
12.7 0 0
12.8 0 0
12.9 0 0
13 0 0
13.1 0 0
13.2 0 0
13.3 0 0
13.4 0 0
13.5 0 0
13.6 0 0
13.7 0 0
13.8 0 0
13.9 0 0
14 0 0
14.1 0 0
14.2 0 0
14.3 0 0
14.4 0 0
14.5 0 0
14.6 0 0
14.7 0 0
14.8 0 0
14.9 0 0
15 0 0
15.1 0 0
15.2 0 0
15.3 0 0
15.4 0 0
15.5 0 0
15.6 0 0
15.7 0 0
15.8 0 0
15.9 0 0
16 0 0
16.1 0 0
16.2 0 0
16.3 0 0
16.4 0 0
16.5 0 0
16.6 0 0
16.7 0 0
16.8 0 0
16.9 0 0
17 0 0
17.1 0 0
17.2 0 0
17.3 0 0
17.4 0 0
17.5 0 0
17.6 0 0
17.7 0 0
17.8 0 0
17.9 0 0
18 0 0
18.1 0 0
18.2 0 0
18.3 0 0
18.4 0 0
18.5 0 0
18.6 0 0
18.7 0 0
18.8 0 0
18.9 0 0
19 0 0
19.1 0 0
19.2 0 0
19.3 0 0
19.4 0 0
19.5 0 0
19.6 0 0
19.7 0 0
19.8 0 0
19.9 0 0
20 0 0
20.1 0 0
20.2 0 0
20.3 0 0
20.4 0 0
20.5 0 0
20.6 0 0
20.7 0 0
20.8 0 0
20.9 0 0
21 0 0
21.1 0 0
21.2 0 0
21.3 0 0
21.4 0 0
21.5 0 0
21.6 0 0
21.7 0 0
21.8 0 0
21.9 0 0
22 0 0
22.1 0 0
22.2 0 0
22.3 0 0
22.4 0 0
22.5 0 0
22.6 0 0
22.7 0 0
22.8 0 0
22.9 0 0
23 0 0
23.1 0 0
23.2 0 0
23.3 0 0
23.4 0 0
23.5 0 0
23.6 0 0
23.7 0 0
23.8 0 0
23.9 0 0
24 0 0
24.1 0 0
24.2 0 0
24.3 0 0
24.4 0 0
24.5 0 0
24.6 0 0
24.7 0 0
24.8 0 0
24.9 0 0
25 0 0
25.1 0 0
25.2 0 0
25.3 0 0
25.4 0 0
25.5 0 0
25.6 0 0
25.7 0 0
25.8 0 0
25.9 0 0
26 0 0
26.1 0 0
26.2 0 0
26.3 0 0
26.4 0 0
26.5 0 0
26.6 0 0
26.7 0 0
26.8 0 0
26.9 0 0
27 0 0
27.1 0 0
27.2 0 0
27.3 0 0
27.4 0 0
27.5 0 0
27.6 0 0
27.7 0 0
27.8 0 0
27.9 0 0
28 0 0
28.1 0 0
28.2 0 0
28.3 0 0
28.4 0 0
28.5 0 0
28.6 0 0
28.7 0 0
28.8 0 0
28.9 0 0
29 0 0
29.1 0 0
29.2 0 0
29.3 0 0
29.4 0 0
29.5 0 0
29.6 0 0
29.7 0 0
29.8 0 0
29.9 0 0
30 0 0
30.1 0 0
30.2 0 0
30.3 0 0
30.4 0 0
30.5 0 0
30.6 0 0
30.7 0 0
30.8 0 0
30.9 0 0
31 0 0
31.1 0 0
31.2 0 0
31.3 0 0
31.4 0 0
31.5 0 0
31.6 0 0
31.7 0 0
31.8 0 0
31.9 0 0
32 0 0
32.1 0 0
32.2 0 0
32.3 0 0
32.4 0 0
32.5 0 0
32.6 0 0
32.7 0 0
32.8 0 0
32.9 0 0
33 0 0
33.1 0 0
33.2 0 0
33.3 0 0
33.4 0 0
33.5 0 0
33.6 0 0
33.7 0 0
33.8 0 0
33.9 0 0
34 0 0
34.1 0 0
34.2 0 0
34.3 0 0
34.4 0 0
34.5 0 0
34.6 0 0
34.7 0 0
34.8 0 0
34.9 0 0
35 0 0
35.1 0 0
35.2 0 0
35.3 0 0
35.4 0 0
35.5 0 0
35.6 0 0
35.7 0 0
35.8 0 0
35.9 0 0
36 0 0
36.1 0 0
36.2 0 0
36.3 0 0
36.4 0 0
36.5 0 0
36.6 0 0
36.7 0 0
36.8 0 0
36.9 0 0
37 0 0
37.1 0 0
37.2 0 0
37.3 0 0
37.4 0 0
37.5 0 0
37.6 0 0
37.7 0 0
37.8 0 0
37.9 0 0
38 0 0
38.1 0 0
38.2 0 0
38.3 0 0
38.4 0 0
38.5 0 0
38.6 0 0
38.7 0 0
38.8 0 0
38.9 0 0
39 0 0
39.1 0 0
39.2 0 0
39.3 0 0
39.4 0 0
39.5 0 0
39.6 0 0
39.7 0 0
39.8 0 0
39.9 0 0
40 0 0
40.1 0 0
40.2 0 0
40.3 0 0
40.4 0 0
40.5 0 0
40.6 0 0
40.7 0 0
40.8 0 0
40.9 0 0
41 0 0
41.1 0 0
41.2 0 0
41.3 0 0
41.4 0 0
41.5 0 0
41.6 0 0
41.7 0 0
41.8 0 0
41.9 0 0
42 0 0
42.1 0 0
42.2 0 0
42.3 0 0
42.4 0 0
42.5 0 0
42.6 0 0
42.7 0 0
42.8 0 0
42.9 0 0
43 0 0
43.1 0 0
43.2 0 0
43.3 0 0
43.4 0 0
43.5 0 0
43.6 0 0
43.7 0 0
43.8 0 0
43.9 0 0
44 0 0
44.1 0 0
44.2 0 0
44.3 0 0
44.4 0 0
44.5 0 0
44.6 0 0
44.7 0 0
44.8 0 0
44.9 0 0
45 0 0
45.1 0 0
45.2 0 0
45.3 0 0
45.4 0 0
45.5 0 0
45.6 0 0
45.7 0 0
45.8 0 0
45.9 0 0
46 0 0
46.1 0 0
46.2 0 0
46.3 0 0
46.4 0 0
46.5 0 0
46.6 0 0
46.7 0 0
46.8 0 0
46.9 0 0
47 0 0
47.1 0 0
47.2 0 0
47.3 0 0
47.4 0 0
47.5 0 0
47.6 0 0
47.7 0 0
47.8 0 0
47.9 0 0
48 0 0
48.1 0 0
48.2 0 0
48.3 0 0
48.4 0 0
48.5 0 0
48.6 0 0
48.7 0 0
48.8 0 0
48.9 0 0
49 0 0
49.1 0 0
49.2 0 0
49.3 0 0
49.4 0 0
49.5 0 0
49.6 0 0
49.7 0 0
49.8 0 0
49.9 0 0
50 0 0
50.1 0 0
50.2 0 0
50.3 0 0
50.4 0 0
50.5 0 0
50.6 0 0
50.7 0 0
50.8 0 0
50.9 0 0
51 0 0
51.1 0 0
51.2 0 0
51.3 0 0
51.4 0 0
51.5 0 0
51.6 0 0
51.7 0 0
51.8 0 0
51.9 0 0
52 0 0
52.1 0 0
52.2 0 0
52.3 0 0
52.4 0 0
52.5 0 0
52.6 0 0
52.7 0 0
52.8 0 0
52.9 0 0
53 0 0
53.1 0 0
53.2 0 0
53.3 0 0
53.4 0 0
53.5 0 0
53.6 0 0
53.7 0 0
53.8 0 0
53.9 0 0
54 0 0
54.1 0 0
54.2 0 0
54.3 0 0
54.4 0 0
54.5 0 0
54.6 0 0
54.7 0 0
54.8 0 0
54.9 0 0
55 0 0
55.1 0 0
55.2 0 0
55.3 0 0
55.4 0 0
55.5 0 0
55.6 0 0
55.7 0 0
55.8 0 0
55.9 0 0
56 0 0
56.1 0 0
56.2 0 0
56.3 0 0
56.4 0 0
56.5 0 0
56.6 0 0
56.7 0 0
56.8 0 0
56.9 0 0
57 0 0
57.1 0 0
57.2 0 0
57.3 0 0
57.4 0 0
57.5 0 0
57.6 0 0
57.7 0 0
57.8 0 0
57.9 0 0
58 0 0
58.1 0 0
58.2 0 0
58.3 0 0
58.4 0 0
58.5 0 0
58.6 0 0
58.7 0 0
58.8 0 0
58.9 0 0
59 0 0
59.1 0 0
59.2 0 0
59.3 0 0
59.4 0 0
59.5 0 0
59.6 0 0
59.7 0 0
59.8 0 0
59.9 0 0
60 0 0
60.1 0 0
60.2 0 0
60.3 0 0
60.4 0 0
60.5 0 0
60.6 0 0
60.7 0 0
60.8 0 0
60.9 0 0
61 0 0
61.1 0 0
61.2 0 0
61.3 0 0
61.4 0 0
61.5 0 0
61.6 0 0
61.7 0 0
61.8 0 0
61.9 0 0
62 0 0
62.1 0 0
62.2 0 0
62.3 0 0
62.4 0 0
62.5 0 0
62.6 0 0
62.7 0 0
62.8 0 0
62.9 0 0
63 0 0
63.1 0 0
63.2 0 0
63.3 0 0
63.4 0 0
63.5 0 0
63.6 0 0
63.7 0 0
63.8 0 0
63.9 0 0
64 0 0
64.1 0 0
64.2 0 0
64.3 0 0
64.4 0 0
64.5 0 0
64.6 0 0
64.7 0 0
64.8 0 0
64.9 0 0
65 0 0
65.1 0 0
65.2 0 0
65.3 0 0
65.4 0 0
65.5 0 0
65.6 0 0
65.7 0 0
65.8 0 0
65.9 0 0
66 0 0
66.1 0 0
66.2 0 0
66.3 0 0
66.4 0 0
66.5 0 0
66.6 0 0
66.7 0 0
66.8 0 0
66.9 0 0
67 0 0
67.1 0 0
67.2 0 0
67.3 0 0
67.4 0 0
67.5 0 0
67.6 0 0
67.7 0 0
67.8 0 0
67.9 0 0
68 0 0
68.1 0 0
68.2 0 0
68.3 0 0
68.4 0 0
68.5 0 0
68.6 0 0
68.7 0 0
68.8 0 0
68.9 0 0
69 0 0
69.1 0 0
69.2 0 0
69.3 0 0
69.4 0 0
69.5 0 0
69.6 0 0
69.7 0 0
69.8 0 0
69.9 0 0
70 0 0
70.1 0 0
70.2 0 0
70.3 0 0
70.4 0 0
70.5 0 0
70.6 0 0
70.7 0 0
70.8 0 0
70.9 0 0
71 0 0
71.1 0 0
71.2 0 0
71.3 0 0
71.4 0 0
71.5 0 0
71.6 0 0
71.7 0 0
71.8 0 0
71.9 0 0
72 0 0
72.1 0 0
72.2 0 0
72.3 0 0
72.4 0 0
72.5 0 0
72.6 0 0
72.7 0 0
72.8 0 0
72.9 0 0
73 0 0
73.1 0 0
73.2 0 0
73.3 0 0
73.4 0 0
73.5 0 0
73.6 0 0
73.7 0 0
73.8 0 0
73.9 0 0
74 0 0
74.1 0 0
74.2 0 0
74.3 0 0
74.4 0 0
74.5 0 0
74.6 0 0
74.7 0 0
74.8 0 0
74.9 0 0
75 0 0
75.1 0 0
75.2 0 0
75.3 0 0
75.4 0 0
75.5 0 0
75.6 0 0
75.7 0 0
75.8 0 0
75.9 0 0
76 0 0
76.1 0 0
76.2 0 0
76.3 0 0
76.4 0 0
76.5 0 0
76.6 0 0
76.7 0 0
76.8 0 0
76.9 0 0
77 0 0
77.1 0 0
77.2 0 0
77.3 0 0
77.4 0 0
77.5 0 0
77.6 0 0
77.7 0 0
77.8 0 0
77.9 0 0
78 0 0
78.1 0 0
78.2 0 0
78.3 0 0
78.4 0 0
78.5 0 0
78.6 0 0
78.7 0 0
78.8 0 0
78.9 0 0
79 0 0
79.1 0 0
79.2 0 0
79.3 0 0
79.4 0 0
79.5 0 0
79.6 0 0
79.7 0 0
79.8 0 0
79.9 0 0
80 0 0
80.1 0 0
80.2 0 0
80.3 0 0
80.4 0 0
80.5 0 0
80.6 0 0
80.7 0 0
80.8 0 0
80.9 0 0
81 0 0
81.1 0 0
81.2 0 0
81.3 0 0
81.4 0 0
81.5 0 0
81.6 0 0
81.7 0 0
81.8 0 0
81.9 0 0
82 0 0
82.1 0 0
82.2 0 0
82.3 0 0
82.4 0 0
82.5 0 0
82.6 0 0
82.7 0 0
82.8 0 0
82.9 0 0
83 0 0
83.1 0 0
83.2 0 0
83.3 0 0
83.4 0 0
83.5 0 0
83.6 0 0
83.7 0 0
83.8 0 0
83.9 0 0
84 0 0
84.1 0 0
84.2 0 0
84.3 0 0
84.4 0 0
84.5 0 0
84.6 0 0
84.7 0 0
84.8 0 0
84.9 0 0
85 0 0
85.1 0 0
85.2 0 0
85.3 0 0
85.4 0 0
85.5 0 0
85.6 0 0
85.7 0 0
85.8 0 0
85.9 0 0
86 0 0
86.1 0 0
86.2 0 0
86.3 0 0
86.4 0 0
86.5 0 0
86.6 0 0
86.7 0 0
86.8 0 0
86.9 0 0
87 0 0
87.1 0 0
87.2 0 0
87.3 0 0
87.4 0 0
87.5 0 0
87.6 0 0
87.7 0 0
87.8 0 0
87.9 0 0
88 0 0
88.1 0 0
88.2 0 0
88.3 0 0
88.4 0 0
88.5 0 0
88.6 0 0
88.7 0 0
88.8 0 0
88.9 0 0
89 0 0
89.1 0 0
89.2 0 0
89.3 0 0
89.4 0 0
89.5 0 0
89.6 0 0
89.7 0 0
89.8 0 0
89.9 0 0
90 0 0
90.1 0 0
90.2 0 0
90.3 0 0
90.4 0 0
90.5 0 0
90.6 0 0
90.7 0 0
90.8 0 0
90.9 0 0
91 0 0
91.1 0 0
91.2 0 0
91.3 0 0
91.4 0 0
91.5 0 0
91.6 0 0
91.7 0 0
91.8 0 0
91.9 0 0
92 0 0
92.1 0 0
92.2 0 0
92.3 0 0
92.4 0 0
92.5 0 0
92.6 0 0
92.7 0 0
92.8 0 0
92.9 0 0
93 0 0
93.1 0 0
93.2 0 0
93.3 0 0
93.4 0 0
93.5 0 0
93.6 0 0
93.7 0 0
93.8 0 0
93.9 0 0
94 0 0
94.1 0 0
94.2 0 0
94.3 0 0
94.4 0 0
94.5 0 0
94.6 0 0
94.7 0 0
94.8 0 0
94.9 0 0
95 0 0
95.1 0 0
95.2 0 0
95.3 0 0
95.4 0 0
95.5 0 0
95.6 0 0
95.7 0 0
95.8 0 0
95.9 0 0
96 0 0
96.1 0 0
96.2 0 0
96.3 0 0
96.4 0 0
96.5 0 0
96.6 0 0
96.7 0 0
96.8 0 0
96.9 0 0
97 0 0
97.1 0 0
97.2 0 0
97.3 0 0
97.4 0 0
97.5 0 0
97.6 0 0
97.7 0 0
97.8 0 0
97.9 0 0
98 0 0
98.1 0 0
98.2 0 0
98.3 0 0
98.4 0 0
98.5 0 0
98.6 0 0
98.7 0 0
98.8 0 0
98.9 0 0
99 0 0
99.1 0 0
99.2 0 0
99.3 0 0
99.4 0 0
99.5 0 0
99.6 0 0
99.7 0 0
99.8 0 0
99.9 0 0
100 0 0
100.1 0 0
100.2 0 0
100.3 0 0
100.4 0 0
100.5 0 0
100.6 0 0
100.7 0 0
100.8 0 0
100.9 0 0
101 0 0
101.1 0 0
101.2 0 0
101.3 0 0
101.4 0 0
101.5 0 0
101.6 0 0
101.7 0 0
101.8 0 0
101.9 0 0
102 0 0
102.1 0 0
102.2 0 0
102.3 0 0
102.4 0 0
102.5 0 0
102.6 0 0
102.7 0 0
102.8 0 0
102.9 0 0
103 0 0
103.1 0 0
103.2 0 0
103.3 0 0
103.4 0 0
103.5 0 0
103.6 0 0
103.7 0 0
103.8 0 0
103.9 0 0
104 0 0
104.1 0 0
104.2 0 0
104.3 0 0
104.4 0 0
104.5 0 0
104.6 0 0
104.7 0 0
104.8 0 0
104.9 0 0
105 0 0
105.1 0 0
105.2 0 0
105.3 0 0
105.4 0 0
105.5 0 0
105.6 0 0
105.7 0 0
105.8 0 0
105.9 0 0
106 0 0
106.1 0 0
106.2 0 0
106.3 0 0
106.4 0 0
106.5 0 0
106.6 0 0
106.7 0 0
106.8 0 0
106.9 0 0
107 0 0
107.1 0 0
107.2 0 0
107.3 0 0
107.4 0 0
107.5 0 0
107.6 0 0
107.7 0 0
107.8 0 0
107.9 0 0
108 0 0
108.1 0 0
108.2 0 0
108.3 0 0
108.4 0 0
108.5 0 0
108.6 0 0
108.7 0 0
108.8 0 0
108.9 0 0
109 0 0
109.1 0 0
109.2 0 0
109.3 0 0
109.4 0 0
109.5 0 0
109.6 0 0
109.7 0 0
109.8 0 0
109.9 0 0
110 0 0
110.1 0 0
110.2 0 0
110.3 0 0
110.4 0 0
110.5 0 0
110.6 0 0
110.7 0 0
110.8 0 0
110.9 0 0
111 0 0
111.1 0 0
111.2 0 0
111.3 0 0
111.4 0 0
111.5 0 0
111.6 0 0
111.7 0 0
111.8 0 0
111.9 0 0
112 0 0
[...]
POINT_DATA 83304

SCALARS pressure float 1
LOOKUP_TABLE default
0
0
0
0
0
0
0
0
0
0
0
0
0
0
0
0
0
0
0
0
0
0
0
0
0
0
0
0
0
0
0
0
0
0
0
0
0
0
0
0
0
0
0
0
0
0
0
0
0
0
0
0
0
0
0
0
0
0
0
0
0
0
0
0
0
0
0
0
0
0
0
0
0
0
0
0
0
0
0
0
0
0
0
0
0
0
0
0
0
0
0
0
0
0
0
0
0
0
0
0
0
0
0
0
0
0
0
0
0
0
0
0
0
0
0
0
0
0
0
0
0
0
0
0
0
0
0
0
0
0
0
0
0
0
0
0
0
0
0
0
0
0
0
0
0
0
0
0
0
0
0
0
0
0
0
0
0
0
0
0
0
0
0
0
0
0
0
0
0
0
0
0
0
0
0
0
0
0
0
0
0
0
0
0
0
0
0
0
0
0
0
0
0
0
0
0
0
0
0
0
0
0
0
0
0
0
0
0
0
0
0
0
0
0
0
0
0
0
0
0
0
0
0
0
0
0
0
0
0
0
0
0
0
0
0
0
0
0
0
0
0
0
0
0
0
0
0
0
0
0
0
0
0
0
0
0
0
0
0
0
0
0
0
0
0
0
0
0
0
0
0
0
0
0
0
0
0
0
0
0
0
0
0
0
0
0
0
0
0
0
0
0
0
0
0
0
0
0
0
0
0
0
0
0
0
0
0
0
0
0
0
0
0
0
0
0
0
0
0
0
0
0
0
0
0
0
0
0
0
0
0
0
0
0
0
0
0
0
0
0
0
0
0
0
0
0
0
0
0
0
0
0
0
0
0
0
0
0
0
0
0
0
0
0
0
0
0
0
0
0
0
0
0
0
0
0
0
0
0
0
0
0
0
0
0
0
0
0
0
0
0
0
0
0
0
0
0
0
0
0
0
0
0
0
0
0
0
0
0
0
0
0
0
0
0
0
0
0
0
0
0
0
0
0
0
0
0
0
0
0
0
0
0
0
0
0
0
0
0
0
0
0
0
0
0
0
0
0
0
0
0
0
0
0
0
0
0
0
0
0
0
0
0
0
0
0
0
0
0
0
0
0
0
0
0
0
0
0
0
0
0
0
0
0
0
0
0
0
0
0
0
0
0
0
0
0
0
0
0
0
0
0
0
0
0
0
0
0
0
0
0
0
0
0
0
0
0
0
0
0
0
0
0
0
0
0
0
0
0
0
0
0
0
0
0
0
0
0
0
0
0
0
0
0
0
0
0
0
0
0
0
0
0
0
0
0
0
0
0
0
0
0
0
0
0
0
0
0
0
0
0
0
0
0
0
0
0
0
0
0
0
0
0
0
0
0
0
0
0
0
0
0
0
0
0
0
0
0
0
0
0
0
0
0
0
0
0
0
0
0
0
0
0
0
0
0
0
0
0
0
0
0
0
0
0
0
0
0
0
0
0
0
0
0
0
0
0
0
0
0
0
0
0
0
0
0
0
0
0
0
0
0
0
0
0
0
0
0
0
0
0
0
0
0
0
0
0
0
0
0
0
0
0
0
0
0
0
0
0
0
0
0
0
0
0
0
0
0
0
0
0
0
0
0
0
0
0
0
0
0
0
0
0
0
0
0
0
0
0
0
0
0
0
0
0
0
0
0
0
0
0
0
0
0
0
0
0
0
0
0
0
0
0
0
0
0
0
0
0
0
0
0
0
0
0
0
0
0
0
0
0
0
0
0
0
0
0
0
0
0
0
0
0
0
0
0
0
0
0
0
0
0
0
0
0
0
0
0
0
0
0
0
0
0
0
0
0
0
0
0
0
0
0
0
0
0
0
0
0
0
0
0
0
0
0
0
0
0
0
0
0
0
0
0
0
0
0
0
0
0
0
0
0
0
0
0
0
0
0
0
0
0
0
0
0
0
0
0
0
0
0
0
0
0
0
0
0
0
0
0
0
0
0
0
0
0
0
0
0
0
0
0
0
0
0
0
0
0
0
0
0
0
0
0
0
0
0
0
0
0
0
0
0
0
0
0
0
0
0
0
0
0
0
0
0
0
0
0
0
0
0
0
0
0
0
0
0
0
0
0
0
0
0
0
0
0
0
0
0
0
0
0
0
0
0
0
0
0
0
0
0
0
0
0
0
0
0
0
0
0
0
0
0
0
0
0
0
0
0
0
0
0
0
0
0
0
0
0
0
0
0
0
0
0
0
0
0
0
0
0
0
0
0
0
0
0
0
0
0
0
0
0
0
0
0
0
0
0
0
0
0
0
0
0
0
0
0
0
0
0
0
0
0
0
0
0
0
0
0
0
0
0
0
0
0
0
0
0
0
0
0
0
0
0
0
0
0
0
0
0
0
0
0
0
0
0
0
0
0
0
0
0
0
0
0
0
0
0
0
0
0
0
0
0
0
0
0
0
0
0
0
0
0
0
0
0
0
0
0
0
0
0
0
0
0
0
0
0
0
0
0
0
0
0
0
0
0
0
0
0
0
0
0
0
0
0
0
0
0
0
0
0
0
0
0
0
0
0
0
0
0
0
0
0
0
0
0
0
0
0
0
0
0
0
0
0
0
0
0
0
0
0
0
0
0
0
0
0
0
0
0
0
0
0
0
0
0
0
0
0
0
0
0
0
0
0
0
0
0
0
0
0
0
0
0
0
0
0
0
0
0
0
0
0
0
0
0
0
0
0
0
0
0
0
0
0
0
0
0
0
0
0
0
0
0
0
0
0
0
0
0
0
0
0
0
0
0
0
0
0
0
0
0
0
0
0
0
0
0
0
0
0
0
0
0
0
0
0
0
0
0
0
0
0
0
0
0
0
0
0
0
0
0
0
0
0
0
0
0
0
0
0
0
0
0
0
0
0
0
0
0
0
0
0
0
0
0
0
0
0
0
0
0
0
0
0
0
0
0
0
0
0
0
0
0
0
0
0
0
0
0
0
0
0
0
0
0
0
0
0
0
0
0
0
0
0
0
0
0
0
0
0
0
0
0
0
0
0
0
0
0
0
0
0
0
0
0
0
0
0
0
0
0
0
0
0
0
0
0
0
0
0
0
0
0
0
0
0
0
0
0
0
0
0
0
0
0
0
0
0
0
0
0
0
0
0
0
0
0
0
0
0
0
0
0
0
0
0
0
0
0
0
0
0
0
0
0
0
0
0
0
0
0
0
0
0
0
0
0
0
0
0
0
0
0
0
0
0
0
0
0
0
0
0
0
0
0
0
0
0
0
0
0
0
0
0
0
0
0
0
0
0
0
0
0
0
0
0
0
0
0
0
0
0
0
0
0
0
0
0
0
0
0
0
0
0
0
0
0
0
0
0
0
0
0
0
0
0
0
0
0
0
0
0
0
0
0
0
0
0
0
0
0
0
0
0
0
0
0
0
0
0
0
0
0
0
0
0
0
0
0
0
0
0
0
0
0
0
0
0
0
0
0
0
0
0
0
0
0
0
0
0
0
0
0
0
0
0
0
0
0
0
0
0
0
0
0
0
0
0
0
0
0
0
0
0
0
0
0
0
0
0
0
0
0
0
0
0
0
0
0
0
0
0
0
0
0
0
0
0
0
0
0
0
0
0
0
0
0
0
0
0
0
0
0
0
0
0
0
0
0
0
0
0
0
0
0
0
0
0
0
0
0
0.0776415
0.052903
0.0436505
0.0357426
0.03048
0.0271088
0.0248019
0.023116
0.0218008
0.0207277
0.0198235
0.0190436
0.0183596
0.0177519
0.0172066
0.0167134
0.0162643
0.0158532
0.0154749
0.0151254
0.0148012
0.0144993
0.0142174
0.0139533
0.0137051
0.0134714
0.0132506
0.0130416
0.0128434
0.0126549
0.0124753
0.0123039
0.0121401
0.0119833
0.0118328
0.0116884
0.0115494
0.0114156
0.0112866
0.0111621
0.0110418
0.0109254
0.0108128
0.0107037
0.0105979
0.0104952
0.0103955
0.0102987
0.0102045
0.0101129
0.0100238
0.00993701
0.00985249
0.00977014
0.00968987
0.00961162
0.00953531
0.00946087
0.00938825
0.0093174
0.00924826
0.00918078
0.00911492
0.00905064
0.00898789
0.00892665
0.00886686
0.00880848
0.00875148
0.00869582
0.00864143
0.00858827
0.00853629
0.00848544
0.00843565
0.00838688
0.00833909
0.00829225
0.00824637
0.00820147
0.00815762
0.00811491
0.00807351
0.00803359
0.00799537
0.00795908
0.00792494
0.00789312
0.00786371
0.00783666
0.00781172
0.00778845
0.00776612
0.00774374
0.00772009
0.00769376
0.00766324
0.00762713
0.0075843
0.00753414
0.00747685
0.00741368
0.00734718
0.00728134
0.00722162
0.00717479
0.00714858
0.0071511
0.00718995
0.00727119
0.0073981
0.00756986
0.00778025
0.00801653
0.00825861
0.0084787
0.00864156
0.00870574
0.00862549
0.00835422
0.00784935
0.00707852
0.00602695
0.00470502
0.00315809
0.00147415
-0.000213473
-0.00172952
-0.00287078
-0.00342814
-0.00320935
-0.00206116
0.000113539
0.00335016
0.00762178
0.0128469
0.0189002
0.0256236
0.0328447
0.0403811
0.0480347
0.0556046
0.0629154
0.0697912
0.0760159
0.0813627
0.0856795
0.0889255
0.0911183
0.0922689
0.0923711
0.0914344
0.0895115
0.0867004
0.0831312
0.0789505
0.0743108
0.0693622
0.0642457
0.0590879
0.0539969
0.04906
0.0443439
0.039896
0.0357464
0.0319113
0.0283951
0.0251936
0.0222961
0.0196872
0.0173488
0.015261
0.0134034
0.0117554
0.0102973
0.00901013
0.00787609
0.00687874
0.00600297
0.00523502
0.00456241
0.00397395
0.0034596
0.0030104
0.0026184
0.00227656
0.00197862
0.0017191
0.00149316
0.00129654
0.0011255
0.000976779
0.000847504
0.00073517
0.000637587
0.000552841
0.000479263
0.000415397
0.000359975
0.00031189
0.000270181
0.00023401
0.000202647
0.000175459
0.000151894
0.000131472
0.000113779
9.84517e-05
8.51762e-05
7.36797e-05
6.37254e-05
5.51079e-05
4.76488e-05
4.11933e-05
3.56073e-05
3.07744e-05
2.65937e-05
2.29777e-05
1.98506e-05
1.71467e-05
1.48091e-05
1.27884e-05
1.10419e-05
9.53256e-06
8.22845e-06
7.10178e-06
6.12855e-06
5.28797e-06
4.56207e-06
3.93529e-06
3.39417e-06
2.92706e-06
2.52389e-06
2.17597e-06
1.87575e-06
1.61675e-06
1.39332e-06
1.2006e-06
1.03441e-06
8.91097e-07
7.6754e-07
6.61026e-07
5.69218e-07
4.90095e-07
4.21914e-07
3.6317e-07
3.12562e-07
2.68971e-07
2.31428e-07
1.99098e-07
1.71261e-07
1.47297e-07
1.26668e-07
1.08914e-07
9.3635e-08
8.04885e-08
6.91783e-08
5.94491e-08
5.10812e-08
4.38849e-08
3.76972e-08
3.23773e-08
2.78043e-08
2.38738e-08
2.04959e-08
1.75935e-08
1.50999e-08
1.29578e-08
1.1118e-08
9.53799e-09
8.18132e-09
7.01657e-09
6.01674e-09
5.15861e-09
4.4222e-09
3.79033e-09
3.24825e-09
2.78327e-09
2.38447e-09
2.0425e-09
1.74929e-09
1.49793e-09
1.28248e-09
1.09784e-09
9.39627e-10
8.04077e-10
6.87963e-10
5.88515e-10
5.03354e-10
4.30441e-10
3.68026e-10
3.14608e-10
2.68902e-10
2.29805e-10
1.96372e-10
1.67794e-10
1.43371e-10
1.22501e-10
1.04663e-10
8.94093e-11
7.63548e-11
6.51734e-11
5.55889e-11
4.73677e-11
4.03103e-11
3.42444e-11
2.90227e-11
2.45248e-11
2.0662e-11
1.73814e-11
1.46625e-11
1.25031e-11
1.08946e-11
9.79063e-12
9.0821e-12
8.5893e-12
8.08109e-12
7.32223e-12
6.13913e-12
4.48478e-12
2.47904e-12
4.04553e-13
-1.3499e-12
-2.3898e-12
-2.43378e-12
-1.41578e-12
4.63907e-13
2.76088e-12
4.88301e-12
6.23901e-12
6.39898e-12
5.22066e-12
2.90262e-12
-5.41804e-14
-2.96878e-12
-5.15426e-12
-6.09575e-12
-5.5833e-12
-3.76369e-12
-1.09808e-12
1.76095e-12
4.1379e-12
5.50203e-12
5.59052e-12
4.4574e-12
2.44015e-12
5.83252e-14
-2.12504e-12
-3.64111e-12
-4.21757e-12
-3.82342e-12
-2.65115e-12
-1.04729e-12
5.85665e-13
1.88868e-12
2.62281e-12
2.70753e-12
2.21693e-12
1.34062e-12
3.23835e-13
-5.95963e-13
-1.24068e-12
-1.5212e-12
-1.4419e-12
-1.08336e-12
-5.71061e-13
-3.98377e-14
3.97094e-13
6.68386e-13
7.51618e-13
6.68219e-13
4.69872e-13
2.21178e-13
-1.67695e-14
-1.98489e-13
-3.00189e-13
-3.1984e-13
-2.72593e-13
-1.8362e-13
-8.05315e-14
1.29013e-14
8.0689e-14
1.15964e-13
1.20084e-13
1.0026e-13
6.65782e-14
2.92154e-14
-3.63536e-15
-2.68744e-14
-3.86742e-14
-3.99445e-14
-3.33905e-14
-2.24728e-14
-1.05099e-14
-6.6049e-17
7.33264e-15
1.11926e-14
1.18432e-14
1.0127e-14
7.08175e-15
3.68024e-15
6.63123e-16
-1.53148e-15
-2.75729e-15
-3.09582e-15
-2.76839e-15
-2.04937e-15
-1.19705e-15
-4.10164e-16
1.90014e-16
5.56796e-16
7.0199e-16
6.7407e-16
5.36761e-16
3.52016e-16
1.69157e-16
2.01226e-17
-8.03795e-17
-1.31548e-16
-1.41745e-16
-1.23723e-16
-9.07396e-17
-5.39656e-17
-2.12139e-17
3.25525e-18
1.82064e-17
2.45411e-17
2.43476e-17
2.00871e-17
1.40153e-17
7.85815e-18
2.7049e-18
-9.4321e-19
-3.0376e-18
-3.81755e-18
-3.65737e-18
-2.94861e-18
-2.02486e-18
-1.12623e-18
-3.94233e-19
1.13885e-19
4.01712e-19
5.08845e-19
4.89681e-19
3.98137e-19
2.78598e-19
1.62189e-19
6.68543e-20
-3.14596e-22
-3.98371e-20
-5.66235e-20
-5.73325e-20
-4.8525e-20
-3.56026e-20
-2.23869e-20
-1.11437e-20
-2.86024e-21
2.37844e-21
5.02109e-21
5.74858e-21
5.2623e-21
4.15986e-21
2.8815e-21
1.70589e-21
7.74521e-22
1.28239e-22
-2.55526e-22
-4.31374e-22
-4.63047e-22
-4.09124e-22
-3.15874e-22
-2.1528e-22
-1.26267e-22
-5.74969e-23
-1.05792e-23
1.70239e-23
2.97293e-23
3.22862e-23
2.88766e-23
2.27135e-23
1.59774e-23
9.94479e-24
5.20229e-24
1.87101e-24
-1.98466e-25
-1.2785e-24
-1.66567e-24
-1.62399e-24
-1.35955e-24
-1.01597e-24
-6.81641e-25
-4.02134e-25
-1.93367e-25
-5.31496e-26
2.9942e-26
7.0471e-26
8.24568e-26
7.75238e-26
6.42954e-26
4.85329e-26
3.36406e-26
2.12848e-26
1.19776e-26
5.55317e-27
1.51609e-27
-7.28676e-28
-1.74212e-27
-1.98705e-27
-1.80929e-27
-1.44511e-27
-1.04089e-27
-6.76297e-28
-3.85666e-28
-1.75499e-28
-3.73255e-29
4.3631e-29
8.31728e-29
9.53258e-29
9.11913e-29
7.87945e-29
6.34528e-29
4.83524e-29
3.51433e-29
2.44587e-29
1.63208e-29
1.04323e-29
6.36849e-30
3.69247e-30
2.01594e-30
1.02356e-30
4.7604e-31
2.0192e-31
8.47773e-32
4.98047e-32
5.18536e-32
6.57551e-32
7.90329e-32
8.67424e-32
8.80207e-32
8.39186e-32
7.61348e-32
6.63483e-32
5.59224e-32
4.58225e-32
3.66442e-32
2.86867e-32
2.20368e-32
1.66436e-32
1.23784e-32
9.07757e-33
6.57108e-33
4.69974e-33
3.32373e-33
2.32592e-33
1.61154e-33
1.10611e-33
7.52424e-34
5.07483e-34
3.39496e-34
2.25345e-34
1.48455e-34
9.70936e-35
6.30591e-35
4.06786e-35
2.60697e-35
1.66013e-35
1.05067e-35
6.60959e-36
4.1337e-36
2.57052e-36
1.58957e-36
9.77619e-37
5.98057e-37
3.63955e-37
2.20359e-37
1.3275e-37
7.9579e-38
4.74749e-38
2.81882e-38
1.66587e-38
9.7999e-39
5.73904e-39
3.34598e-39
1.94225e-39
1.12256e-39
6.46046e-40
3.70249e-40
2.11312e-40
1.2011e-40
6.79951e-41
3.83393e-41
2.15327e-41
1.20466e-41
6.71357e-42
3.72727e-42
2.06155e-42
1.136e-42
6.23677e-43
3.4116e-43
1.85946e-43
1.00986e-43
5.46511e-44
2.94721e-44
1.58385e-44
8.48243e-45
4.52734e-45
2.40822e-45
1.27671e-45
6.74591e-46
3.55269e-46
1.86488e-46
9.75742e-47
5.08885e-47
2.64554e-47
1.37098e-47
7.08243e-48
3.64732e-48
1.87248e-48
9.58348e-49
4.8899e-49
2.48746e-49
1.26154e-49
6.37891e-50
3.21586e-50
1.61645e-50
8.10123e-51
4.04828e-51
2.01711e-51
1.00216e-51
4.96477e-52
2.45258e-52
1.20814e-52
5.93454e-53
2.90698e-53
1.42e-53
6.9172e-54
3.3603e-54
1.62794e-54
7.86529e-55
3.78979e-55
1.82116e-55
8.728e-56
4.17182e-56
1.98877e-56
9.45581e-57
4.48407e-57
2.12087e-57
1.00052e-57
4.70776e-58
2.20946e-58
1.0343e-58
4.82947e-59
2.24932e-59
1.04498e-59
4.84252e-60
2.23846e-60
1.03216e-60
4.74753e-61
2.1783e-61
9.97009e-62
4.55218e-62
2.0734e-62
9.42089e-63
4.27025e-63
1.93095e-63
8.7106e-64
3.92004e-64
1.75995e-64
7.88289e-65
3.52247e-65
1.57033e-65
6.98423e-66
3.09911e-66
1.37198e-66
6.05979e-67
2.67035e-67
1.17404e-67
5.15001e-68
2.25395e-68
9.84235e-69
4.28818e-69
1.8641e-69
8.08527e-70
3.49905e-70
1.51092e-70
6.50981e-71
2.79858e-71
1.20047e-71
5.13822e-72
2.19445e-72
9.35178e-73
3.97667e-73
1.68736e-73
7.14428e-74
3.0184e-74
1.27253e-74
5.35341e-75
2.24735e-75
9.41437e-76
3.93545e-76
1.64166e-76
6.83379e-77
2.83878e-77
1.17678e-77
4.86809e-78
2.00965e-78
8.27918e-79
3.40377e-79
1.3965e-79
5.71786e-80
2.33636e-80
9.52718e-81
3.87711e-81
1.57462e-81
6.38214e-82
2.58158e-82
1.04216e-82
4.19871e-83
1.68824e-83
6.77468e-84
2.71322e-84
1.08448e-84
4.32621e-85
1.72242e-85
6.84417e-86
2.71428e-86
1.07435e-86
4.24416e-87
1.67339e-87
6.58517e-88
2.58643e-88
1.01391e-88
3.96706e-89
1.5492e-89
6.03839e-90
2.34915e-90
9.12173e-91
3.53528e-91
1.36758e-91
5.2804e-92
2.03501e-92
7.82808e-93
3.00562e-93
1.15188e-93
4.4063e-94
1.68244e-94
6.41212e-95
2.43931e-95
9.26262e-96
3.5108e-96
1.32827e-96
5.01621e-97
1.89093e-97
7.11522e-98
2.67249e-98
1.00199e-98
3.74995e-99
1.40091e-99
5.22417e-100
1.94468e-100
7.22615e-101
2.68036e-101
9.92451e-102
3.66824e-102
1.35344e-102
4.9849e-103
1.83278e-103
6.72674e-104
2.46456e-104
9.01397e-105
3.29107e-105
1.19951e-105
4.36436e-106
1.5852e-106
5.74779e-107
2.08051e-107
7.51785e-108
2.7119e-108
9.76587e-109
3.51082e-109
1.25999e-109
4.51428e-110
1.61463e-110
5.76535e-111
2.05516e-111
7.31366e-112
2.59833e-112
9.21566e-113
3.26312e-113
1.15349e-113
4.07074e-114
1.4342e-114
5.04462e-115
1.77145e-115
6.21028e-116
2.17359e-116
7.59508e-117
2.64956e-117
9.22793e-118
3.20867e-118
1.11388e-118
3.86052e-119
1.33582e-119
4.61473e-120
1.59163e-120
5.48072e-121
1.88423e-121
6.46744e-122
2.21633e-122
7.58301e-123
2.59033e-123
8.83437e-124
3.00819e-124
1.02269e-124
3.47135e-125
1.17642e-125
3.98055e-126
1.34474e-126
4.53578e-127
1.52751e-127
5.1361e-128
1.72427e-128
5.77963e-129
1.93428e-129
6.4634e-130
2.15641e-130
7.18336e-131
2.3892e-131
7.9343e-132
2.63085e-132
8.70994e-133
2.87918e-133
9.50291e-134
3.13171e-134
1.03049e-134
3.38566e-135
1.11067e-135
3.63803e-136
1.18984e-136
3.8856e-137
1.26698e-137
4.12504e-138
1.34102e-138
4.35299e-139
1.41088e-139
4.56608e-140
1.47553e-140
4.7611e-141
1.53398e-141
4.935e-142
1.5853e-142
5.08501e-143
1.62866e-143
5.20871e-144
1.66338e-144
5.30411e-145
1.68888e-145
5.36966e-146
1.70475e-146
5.40433e-147
1.71076e-147
5.40762e-148
1.70684e-148
5.37958e-149
1.69308e-149
5.32081e-150
1.66975e-150
5.23241e-151
1.63729e-151
5.11598e-152
1.59628e-152
4.97357e-153
1.54742e-153
4.8076e-154
1.49152e-154
4.62078e-155
1.4295e-155
4.41611e-156
1.36232e-156
4.1967e-157
1.29099e-157
3.96578e-158
1.21653e-158
3.72657e-159
1.13995e-159
3.48224e-160
1.06224e-160
3.23581e-161
9.84325e-162
2.99014e-162
9.07071e-163
2.74783e-163
8.31264e-164
2.51124e-164
7.57599e-165
2.2824e-165
6.86672e-166
2.06305e-166
6.18981e-167
1.8546e-167
5.54919e-168
1.65812e-168
4.94782e-169
1.47442e-169
4.3877e-170
1.30397e-170
3.86997e-171
1.147e-171
3.39493e-172
1.0035e-172
2.96221e-173
8.73239e-174
2.5708e-174
7.55826e-175
2.21919e-175
6.50712e-176
1.90548e-176
5.57238e-177
1.62742e-177
4.74662e-178
1.38259e-178
4.02186e-179
1.16839e-179
3.38981e-180
9.82179e-181
2.84207e-181
8.21314e-182
2.37036e-182
6.83203e-183
1.96661e-183
5.65352e-184
1.62313e-184
4.65397e-185
1.33269e-185
3.81126e-186
1.08855e-186
3.10501e-187
8.84539e-188
2.51658e-188
7.15063e-189
2.02917e-189
5.7509e-190
1.62778e-190
4.60148e-191
1.2991e-191
3.66298e-192
1.03151e-192
2.90105e-193
8.14865e-194
2.28593e-194
6.40458e-195
1.79212e-195
5.00834e-196
1.39788e-196
3.89673e-197
1.08488e-197
3.01659e-198
8.37731e-199
2.32353e-199
6.43645e-200
1.78074e-200
4.92054e-201
1.35794e-201
3.7429e-202
1.03037e-202
2.83296e-203
7.77943e-204
2.13361e-204
5.84446e-205
1.59896e-205
4.3691e-206
1.19237e-206
3.25009e-207
8.84799e-208
2.4058e-208
6.53345e-209
1.77212e-209
4.80076e-210
1.29896e-210
3.51038e-211
9.47502e-212
2.55433e-212
6.87776e-213
1.84965e-213
4.96824e-214
1.33288e-214
3.57152e-215
9.55851e-216
2.55507e-216
6.8217e-217
1.81911e-217
4.8451e-218
1.28892e-218
3.42473e-219
9.0888e-220
2.40917e-220
6.37836e-221
1.68668e-221
4.4549e-222
1.17524e-222
3.09669e-223
8.14994e-224
2.14237e-224
5.62498e-225
1.47514e-225
3.86396e-226
1.01092e-226
2.64175e-227
6.89533e-228
1.79766e-228
4.6811e-229
1.21753e-229
3.16303e-230
8.20763e-231
2.12728e-231
5.50712e-232
1.42403e-232
3.67795e-233
9.48828e-234
2.44492e-234
6.29272e-235
1.61774e-235
4.15408e-236
1.06547e-236
2.72962e-237
6.98497e-238
1.78536e-238
4.55814e-239
1.16239e-239
2.96083e-240
7.53319e-241
1.91446e-241
4.85979e-242
1.23223e-242
3.12083e-243
7.89503e-244
1.995e-244
5.03544e-245
1.26952e-245
3.19703e-246
8.04197e-247
2.02063e-247
5.0713e-248
1.27134e-248
3.18356e-249
7.96298e-250
1.98952e-250
4.96517e-251
1.23775e-251
3.08206e-252
7.66592e-253
1.90459e-253
4.72663e-254
1.1717e-254
2.90135e-255
7.17624e-256
1.77301e-256
4.37564e-257
1.07867e-257
2.65618e-258
6.53345e-259
1.60527e-259
3.93978e-260
9.65865e-261
2.36528e-261
5.78587e-262
1.41377e-262
3.45071e-263
8.41322e-264
2.04899e-264
4.98473e-265
1.21134e-265
2.94048e-266
7.13009e-267
1.72702e-267
4.17856e-268
1.00991e-268
2.43818e-269
5.88001e-270
1.41651e-270
3.4087e-271
8.19385e-272
1.96751e-272
4.7193e-273
1.13076e-273
2.7064e-274
6.47063e-275
1.54538e-275
3.68685e-276
8.78637e-277
2.09169e-277
4.97418e-278
1.18163e-278
2.80397e-279
6.64667e-280
1.57388e-280
3.72284e-281
8.79663e-282
2.07633e-282
4.89569e-283
1.15311e-283
2.71311e-284
6.37682e-285
1.49721e-285
3.51155e-286
8.22733e-287
1.92557e-287
4.50198e-288
1.05145e-288
2.45313e-289
5.71734e-290
1.3311e-290
3.09581e-291
7.19255e-292
1.66931e-292
3.87023e-293
8.9636e-294
2.07384e-294
4.7931e-295
1.10664e-295
2.55237e-296
5.8807e-297
1.35352e-297
3.11208e-298
7.14802e-299
1.64011e-299
3.75932e-300
8.60793e-301
1.96897e-301
4.49918e-302
1.02702e-302
2.34197e-303
5.335e-304
1.21407e-304
2.75998e-305
6.26792e-306
1.42199e-306
3.22276e-307
7.29649e-308
1.65028e-308
3.7287e-309
8.41621e-310
1.89772e-310
4.27473e-311
9.61929e-312
2.16241e-312
4.85614e-313
1.08945e-313
2.44164e-314
5.46661e-315
1.22269e-315
2.73197e-316
6.09817e-317
1.35983e-317
3.02925e-318
6.74148e-319
1.49875e-319
3.32852e-320
7.38134e-321
1.63536e-321
3.55727e-322
7.90505e-323
9.88131e-324
0
0
0
0
0
0
0
0
0
0
0
0
0
0
0
0
0
0
0
0
0
0
0
0
0
0
0
0
0
0
0
0
0
0
0
0
0
0
0
0
0
0
0
0
0
0
0
0
0
0
0
0
0
0
0
0
0
0
0
0
0
0
0
0
0
0
0
0
0
0
0
0
0
0
0
0
0
0
0
0
0
0
0
0
0
0
0
0
0
0
0
0
0
0
0
0
0
0
0
0
0
0
0
0
0
0
0
0
0
0
0
0
0
0
0
0
0
0
0
0
0
0
0
0
0
0
0
0
0
0
0
0
0
0
0
0
0
0
0
0
0
0
0
0
0
0
0
0
0
0
0
0
0
0
0
0
0
0
0
0
0
0
0
0
0
0
0
0
0
0
0
0
0
0
0
0
0
0
0
0
0
0
0
0
0
0
0
0
0
0
0
0
0
0
0
0
0
0
0
0
0
0
0
0
0
0
0
0
0
0
0
0
0
0
0
0
0
0
0
0
0
0
0
0
0
0
0
0
0
0
0
0
0
0
0
0
0
0
0
0
0
0
0
0
0
0
0
0
0
0
0
0
0
0
0
0
0
0
0
0
0
0
0
0
0
0
0
0
0
0
0
0
0
0
0
0
0
0
0
0
0
0
0
0
0
0
0
0
0
0
0
0
0
0
0
0
0
0
0
0
0
0
0
0
0
0
0
0
0
0
0
0
0
0
0
0
0
0
0
0
0
0
0
0
0
0
0
0
0
0
0
0
0
0
0
0
0
0
0
0
0
0
0
0
0
0
0
0
0
0
0
0
0
0
0
0
0
0
0
0
0
0
0
0
0
0
0
0
0
0
0
0
0
0
0
0
0
0
0
0
0
0
0
0
0
0
0
0
0
0
0
0
0
0
0
0
0
0
0
0
0
0
0
0
0
0
0
0
0
0
0
0
0
0
0
0
0
0
0
0
0
0
0
0
0
0
0
0
0
0
0
0
0
0
0
0
0
0
0
0.062787
0.0345542
0.0299574
0.025277
0.0221391
0.0200069
0.0184495
0.0172639
0.0163155
0.0155312
0.0148652
0.0142884
0.013781
0.0133294
0.0129237
0.0125563
0.0122216
0.0119149
0.0116326
0.0113716
0.0111293
0.0109037
0.0106929
0.0104953
0.0103096
0.0101346
0.00996925
0.00981273
0.00966419
0.00952296
0.0093884
0.00925997
0.00913718
0.00901959
0.0089068
0.00879848
0.00869429
0.00859396
0.00849723
0.00840386
0.00831364
0.00822639
0.00814193
0.00806009
0.00798074
0.00790375
0.00782899
0.00775634
0.00768572
0.00761703
0.00755018
0.00748509
0.0074217
0.00735993
0.00729972
0.00724102
0.00718378
0.00712794
0.00707346
0.00702031
0.00696843
0.00691781
0.00686839
0.00682016
0.00677307
0.00672711
0.00668225
0.00663844
0.00659566
0.00655389
0.00651307
0.00647318
0.00643417
0.006396
0.00635864
0.00632203
0.00628616
0.006251
0.00621654
0.00618281
0.00614984
0.00611772
0.00608655
0.00605646
0.00602762
0.00600021
0.00597439
0.00595031
0.00592805
0.00590759
0.00588877
0.00587129
0.00585463
0.00583808
0.00582073
0.00580154
0.00577935
0.00575309
0.00572183
0.00568504
0.00564273
0.0055957
0.00554571
0.00549559
0.00544929
0.00541182
0.00538896
0.00538686
0.00541144
0.00546759
0.00555824
0.00568337
0.00583903
0.00601643
0.00620131
0.00637363
0.00650761
0.00657264
0.00653453
0.00635787
0.00600938
0.00546229
0.00470176
0.00373034
0.00257546
0.00129657
-1.19649e-05
-0.00122123
-0.00217619
-0.00271277
-0.00267654
-0.00194075
-0.000423853
0.00190435
0.0050223
0.00886158
0.0133161
0.0182511
0.0235199
0.0289688
0.0344366
0.039765
0.0448208
0.049484
0.0536225
0.0571088
0.0598692
0.0619018
0.0632413
0.0639173
0.0639457
0.0633454
0.0621526
0.0604217
0.0582196
0.0556204
0.0527019
0.049544
0.0462267
0.042827
0.0394156
0.0360549
0.0327965
0.0296809
0.0267377
0.0239867
0.0214388
0.0190978
0.016962