# vtk DataFile Version 2.0
FlowField
ASCII
DATASET STRUCTURED_GRID
DIMENSIONS 1602 1 52
POINTS 83304 float
0 0 0
0.1 0 0
0.2 0 0
0.3 0 0
0.4 0 0
0.5 0 0
0.6 0 0
0.7 0 0
0.8 0 0
0.9 0 0
1 0 0
1.1 0 0
1.2 0 0
1.3 0 0
1.4 0 0
1.5 0 0
1.6 0 0
1.7 0 0
1.8 0 0
1.9 0 0
2 0 0
2.1 0 0
2.2 0 0
2.3 0 0
2.4 0 0
2.5 0 0
2.6 0 0
2.7 0 0
2.8 0 0
2.9 0 0
3 0 0
3.1 0 0
3.2 0 0
3.3 0 0
3.4 0 0
3.5 0 0
3.6 0 0
3.7 0 0
3.8 0 0
3.9 0 0
4 0 0
4.1 0 0
4.2 0 0
4.3 0 0
4.4 0 0
4.5 0 0
4.6 0 0
4.7 0 0
4.8 0 0
4.9 0 0
5 0 0
5.1 0 0
5.2 0 0
5.3 0 0
5.4 0 0
5.5 0 0
5.6 0 0
5.7 0 0
5.8 0 0
5.9 0 0
6 0 0
6.1 0 0
6.2 0 0
6.3 0 0
6.4 0 0
6.5 0 0
6.6 0 0
6.7 0 0
6.8 0 0
6.9 0 0
7 0 0
7.1 0 0
7.2 0 0
7.3 0 0
7.4 0 0
7.5 0 0
7.6 0 0
7.7 0 0
7.8 0 0
7.9 0 0
8 0 0
8.1 0 0
8.2 0 0
8.3 0 0
8.4 0 0
8.5 0 0
8.6 0 0
8.7 0 0
8.8 0 0
8.9 0 0
9 0 0
9.1 0 0
9.2 0 0
9.3 0 0
9.4 0 0
9.5 0 0
9.6 0 0
9.7 0 0
9.8 0 0
9.9 0 0
10 0 0
10.1 0 0
10.2 0 0
10.3 0 0
10.4 0 0
10.5 0 0
10.6 0 0
10.7 0 0
10.8 0 0
10.9 0 0
11 0 0
11.1 0 0
11.2 0 0
11.3 0 0
11.4 0 0
11.5 0 0
11.6 0 0
11.7 0 0
11.8 0 0
11.9 0 0
12 0 0
12.1 0 0
12.2 0 0
12.3 0 0
12.4 0 0
12.5 0 0
12.6 0 0
12.7 0 0
12.8 0 0
12.9 0 0
13 0 0
13.1 0 0
13.2 0 0
13.3 0 0
13.4 0 0
13.5 0 0
13.6 0 0
13.7 0 0
13.8 0 0
13.9 0 0
14 0 0
14.1 0 0
14.2 0 0
14.3 0 0
14.4 0 0
14.5 0 0
14.6 0 0
14.7 0 0
14.8 0 0
14.9 0 0
15 0 0
15.1 0 0
15.2 0 0
15.3 0 0
15.4 0 0
15.5 0 0
15.6 0 0
15.7 0 0
15.8 0 0
15.9 0 0
16 0 0
16.1 0 0
16.2 0 0
16.3 0 0
16.4 0 0
16.5 0 0
16.6 0 0
16.7 0 0
16.8 0 0
16.9 0 0
17 0 0
17.1 0 0
17.2 0 0
17.3 0 0
17.4 0 0
17.5 0 0
17.6 0 0
17.7 0 0
17.8 0 0
17.9 0 0
18 0 0
18.1 0 0
18.2 0 0
18.3 0 0
18.4 0 0
18.5 0 0
18.6 0 0
18.7 0 0
18.8 0 0
18.9 0 0
19 0 0
19.1 0 0
19.2 0 0
19.3 0 0
19.4 0 0
19.5 0 0
19.6 0 0
19.7 0 0
19.8 0 0
19.9 0 0
20 0 0
20.1 0 0
20.2 0 0
20.3 0 0
20.4 0 0
20.5 0 0
20.6 0 0
20.7 0 0
20.8 0 0
20.9 0 0
21 0 0
21.1 0 0
21.2 0 0
21.3 0 0
21.4 0 0
21.5 0 0
21.6 0 0
21.7 0 0
21.8 0 0
21.9 0 0
22 0 0
22.1 0 0
22.2 0 0
22.3 0 0
22.4 0 0
22.5 0 0
22.6 0 0
22.7 0 0
22.8 0 0
22.9 0 0
23 0 0
23.1 0 0
23.2 0 0
23.3 0 0
23.4 0 0
23.5 0 0
23.6 0 0
23.7 0 0
23.8 0 0
23.9 0 0
24 0 0
24.1 0 0
24.2 0 0
24.3 0 0
24.4 0 0
24.5 0 0
24.6 0 0
24.7 0 0
24.8 0 0
24.9 0 0
25 0 0
25.1 0 0
25.2 0 0
25.3 0 0
25.4 0 0
25.5 0 0
25.6 0 0
25.7 0 0
25.8 0 0
25.9 0 0
26 0 0
26.1 0 0
26.2 0 0
26.3 0 0
26.4 0 0
26.5 0 0
26.6 0 0
26.7 0 0
26.8 0 0
26.9 0 0
27 0 0
27.1 0 0
27.2 0 0
27.3 0 0
27.4 0 0
27.5 0 0
27.6 0 0
27.7 0 0
27.8 0 0
27.9 0 0
28 0 0
28.1 0 0
28.2 0 0
28.3 0 0
28.4 0 0
28.5 0 0
28.6 0 0
28.7 0 0
28.8 0 0
28.9 0 0
29 0 0
29.1 0 0
29.2 0 0
29.3 0 0
29.4 0 0
29.5 0 0
29.6 0 0
29.7 0 0
29.8 0 0
29.9 0 0
30 0 0
30.1 0 0
30.2 0 0
30.3 0 0
30.4 0 0
30.5 0 0
30.6 0 0
30.7 0 0
30.8 0 0
30.9 0 0
31 0 0
31.1 0 0
31.2 0 0
31.3 0 0
31.4 0 0
31.5 0 0
31.6 0 0
31.7 0 0
31.8 0 0
31.9 0 0
32 0 0
32.1 0 0
32.2 0 0
32.3 0 0
32.4 0 0
32.5 0 0
32.6 0 0
32.7 0 0
32.8 0 0
32.9 0 0
33 0 0
33.1 0 0
33.2 0 0
33.3 0 0
33.4 0 0
33.5 0 0
33.6 0 0
33.7 0 0
33.8 0 0
33.9 0 0
34 0 0
34.1 0 0
34.2 0 0
34.3 0 0
34.4 0 0
34.5 0 0
34.6 0 0
34.7 0 0
34.8 0 0
34.9 0 0
35 0 0
35.1 0 0
35.2 0 0
35.3 0 0
35.4 0 0
35.5 0 0
35.6 0 0
35.7 0 0
35.8 0 0
35.9 0 0
36 0 0
36.1 0 0
36.2 0 0
36.3 0 0
36.4 0 0
36.5 0 0
36.6 0 0
36.7 0 0
36.8 0 0
36.9 0 0
37 0 0
37.1 0 0
37.2 0 0
37.3 0 0
37.4 0 0
37.5 0 0
37.6 0 0
37.7 0 0
37.8 0 0
37.9 0 0
38 0 0
38.1 0 0
38.2 0 0
38.3 0 0
38.4 0 0
38.5 0 0
38.6 0 0
38.7 0 0
38.8 0 0
38.9 0 0
39 0 0
39.1 0 0
39.2 0 0
39.3 0 0
39.4 0 0
39.5 0 0
39.6 0 0
39.7 0 0
39.8 0 0
39.9 0 0
40 0 0
40.1 0 0
40.2 0 0
40.3 0 0
40.4 0 0
40.5 0 0
40.6 0 0
40.7 0 0
40.8 0 0
40.9 0 0
41 0 0
41.1 0 0
41.2 0 0
41.3 0 0
41.4 0 0
41.5 0 0
41.6 0 0
41.7 0 0
41.8 0 0
41.9 0 0
42 0 0
42.1 0 0
42.2 0 0
42.3 0 0
42.4 0 0
42.5 0 0
42.6 0 0
42.7 0 0
42.8 0 0
42.9 0 0
43 0 0
43.1 0 0
43.2 0 0
43.3 0 0
43.4 0 0
43.5 0 0
43.6 0 0
43.7 0 0
43.8 0 0
43.9 0 0
44 0 0
44.1 0 0
44.2 0 0
44.3 0 0
44.4 0 0
44.5 0 0
44.6 0 0
44.7 0 0
44.8 0 0
44.9 0 0
45 0 0
45.1 0 0
45.2 0 0
45.3 0 0
45.4 0 0
45.5 0 0
45.6 0 0
45.7 0 0
45.8 0 0
45.9 0 0
46 0 0
46.1 0 0
46.2 0 0
46.3 0 0
46.4 0 0
46.5 0 0
46.6 0 0
46.7 0 0
46.8 0 0
46.9 0 0
47 0 0
47.1 0 0
47.2 0 0
47.3 0 0
47.4 0 0
47.5 0 0
47.6 0 0
47.7 0 0
47.8 0 0
47.9 0 0
48 0 0
48.1 0 0
48.2 0 0
48.3 0 0
48.4 0 0
48.5 0 0
48.6 0 0
48.7 0 0
48.8 0 0
48.9 0 0
49 0 0
49.1 0 0
49.2 0 0
49.3 0 0
49.4 0 0
49.5 0 0
49.6 0 0
49.7 0 0
49.8 0 0
49.9 0 0
50 0 0
50.1 0 0
50.2 0 0
50.3 0 0
50.4 0 0
50.5 0 0
50.6 0 0
50.7 0 0
50.8 0 0
50.9 0 0
51 0 0
51.1 0 0
51.2 0 0
51.3 0 0
51.4 0 0
51.5 0 0
51.6 0 0
51.7 0 0
51.8 0 0
51.9 0 0
52 0 0
52.1 0 0
52.2 0 0
52.3 0 0
52.4 0 0
52.5 0 0
52.6 0 0
52.7 0 0
52.8 0 0
52.9 0 0
53 0 0
53.1 0 0
53.2 0 0
53.3 0 0
53.4 0 0
53.5 0 0
53.6 0 0
53.7 0 0
53.8 0 0
53.9 0 0
54 0 0
54.1 0 0
54.2 0 0
54.3 0 0
54.4 0 0
54.5 0 0
54.6 0 0
54.7 0 0
54.8 0 0
54.9 0 0
55 0 0
55.1 0 0
55.2 0 0
55.3 0 0
55.4 0 0
55.5 0 0
55.6 0 0
55.7 0 0
55.8 0 0
55.9 0 0
56 0 0
56.1 0 0
56.2 0 0
56.3 0 0
56.4 0 0
56.5 0 0
56.6 0 0
56.7 0 0
56.8 0 0
56.9 0 0
57 0 0
57.1 0 0
57.2 0 0
57.3 0 0
57.4 0 0
57.5 0 0
57.6 0 0
57.7 0 0
57.8 0 0
57.9 0 0
58 0 0
58.1 0 0
58.2 0 0
58.3 0 0
58.4 0 0
58.5 0 0
58.6 0 0
58.7 0 0
58.8 0 0
58.9 0 0
59 0 0
59.1 0 0
59.2 0 0
59.3 0 0
59.4 0 0
59.5 0 0
59.6 0 0
59.7 0 0
59.8 0 0
59.9 0 0
60 0 0
60.1 0 0
60.2 0 0
60.3 0 0
60.4 0 0
60.5 0 0
60.6 0 0
60.7 0 0
60.8 0 0
60.9 0 0
61 0 0
61.1 0 0
61.2 0 0
61.3 0 0
61.4 0 0
61.5 0 0
61.6 0 0
61.7 0 0
61.8 0 0
61.9 0 0
62 0 0
62.1 0 0
62.2 0 0
62.3 0 0
62.4 0 0
62.5 0 0
62.6 0 0
62.7 0 0
62.8 0 0
62.9 0 0
63 0 0
63.1 0 0
63.2 0 0
63.3 0 0
63.4 0 0
63.5 0 0
63.6 0 0
63.7 0 0
63.8 0 0
63.9 0 0
64 0 0
64.1 0 0
64.2 0 0
64.3 0 0
64.4 0 0
64.5 0 0
64.6 0 0
64.7 0 0
64.8 0 0
64.9 0 0
65 0 0
65.1 0 0
65.2 0 0
65.3 0 0
65.4 0 0
65.5 0 0
65.6 0 0
65.7 0 0
65.8 0 0
65.9 0 0
66 0 0
66.1 0 0
66.2 0 0
66.3 0 0
66.4 0 0
66.5 0 0
66.6 0 0
66.7 0 0
66.8 0 0
66.9 0 0
67 0 0
67.1 0 0
67.2 0 0
67.3 0 0
67.4 0 0
67.5 0 0
67.6 0 0
67.7 0 0
67.8 0 0
67.9 0 0
68 0 0
68.1 0 0
68.2 0 0
68.3 0 0
68.4 0 0
68.5 0 0
68.6 0 0
68.7 0 0
68.8 0 0
68.9 0 0
69 0 0
69.1 0 0
69.2 0 0
69.3 0 0
69.4 0 0
69.5 0 0
69.6 0 0
69.7 0 0
69.8 0 0
69.9 0 0
70 0 0
70.1 0 0
70.2 0 0
70.3 0 0
70.4 0 0
70.5 0 0
70.6 0 0
70.7 0 0
70.8 0 0
70.9 0 0
71 0 0
71.1 0 0
71.2 0 0
71.3 0 0
71.4 0 0
71.5 0 0
71.6 0 0
71.7 0 0
71.8 0 0
71.9 0 0
72 0 0
72.1 0 0
72.2 0 0
72.3 0 0
72.4 0 0
72.5 0 0
72.6 0 0
72.7 0 0
72.8 0 0
72.9 0 0
73 0 0
73.1 0 0
73.2 0 0
73.3 0 0
73.4 0 0
73.5 0 0
73.6 0 0
73.7 0 0
73.8 0 0
73.9 0 0
74 0 0
74.1 0 0
74.2 0 0
74.3 0 0
74.4 0 0
74.5 0 0
74.6 0 0
74.7 0 0
74.8 0 0
74.9 0 0
75 0 0
75.1 0 0
75.2 0 0
75.3 0 0
75.4 0 0
75.5 0 0
75.6 0 0
75.7 0 0
75.8 0 0
75.9 0 0
76 0 0
76.1 0 0
76.2 0 0
76.3 0 0
76.4 0 0
76.5 0 0
76.6 0 0
76.7 0 0
76.8 0 0
76.9 0 0
77 0 0
77.1 0 0
77.2 0 0
77.3 0 0
77.4 0 0
77.5 0 0
77.6 0 0
77.7 0 0
77.8 0 0
77.9 0 0
78 0 0
78.1 0 0
78.2 0 0
78.3 0 0
78.4 0 0
78.5 0 0
78.6 0 0
78.7 0 0
78.8 0 0
78.9 0 0
79 0 0
79.1 0 0
79.2 0 0
79.3 0 0
79.4 0 0
79.5 0 0
79.6 0 0
79.7 0 0
79.8 0 0
79.9 0 0
80 0 0
80.1 0 0
80.2 0 0
80.3 0 0
80.4 0 0
80.5 0 0
80.6 0 0
80.7 0 0
80.8 0 0
80.9 0 0
81 0 0
81.1 0 0
81.2 0 0
81.3 0 0
81.4 0 0
81.5 0 0
81.6 0 0
81.7 0 0
81.8 0 0
81.9 0 0
82 0 0
82.1 0 0
82.2 0 0
82.3 0 0
82.4 0 0
82.5 0 0
82.6 0 0
82.7 0 0
82.8 0 0
82.9 0 0
83 0 0
83.1 0 0
83.2 0 0
83.3 0 0
83.4 0 0
83.5 0 0
83.6 0 0
83.7 0 0
83.8 0 0
83.9 0 0
84 0 0
84.1 0 0
84.2 0 0
84.3 0 0
84.4 0 0
84.5 0 0
84.6 0 0
84.7 0 0
84.8 0 0
84.9 0 0
85 0 0
85.1 0 0
85.2 0 0
85.3 0 0
85.4 0 0
85.5 0 0
85.6 0 0
85.7 0 0
85.8 0 0
85.9 0 0
86 0 0
86.1 0 0
86.2 0 0
86.3 0 0
86.4 0 0
86.5 0 0
86.6 0 0
86.7 0 0
86.8 0 0
86.9 0 0
87 0 0
87.1 0 0
87.2 0 0
87.3 0 0
87.4 0 0
87.5 0 0
87.6 0 0
87.7 0 0
87.8 0 0
87.9 0 0
88 0 0
88.1 0 0
88.2 0 0
88.3 0 0
88.4 0 0
88.5 0 0
88.6 0 0
88.7 0 0
88.8 0 0
88.9 0 0
89 0 0
89.1 0 0
89.2 0 0
89.3 0 0
89.4 0 0
89.5 0 0
89.6 0 0
89.7 0 0
89.8 0 0
89.9 0 0
90 0 0
90.1 0 0
90.2 0 0
90.3 0 0
90.4 0 0
90.5 0 0
90.6 0 0
90.7 0 0
90.8 0 0
90.9 0 0
91 0 0
91.1 0 0
91.2 0 0
91.3 0 0
91.4 0 0
91.5 0 0
91.6 0 0
91.7 0 0
91.8 0 0
91.9 0 0
92 0 0
92.1 0 0
92.2 0 0
92.3 0 0
92.4 0 0
92.5 0 0
92.6 0 0
92.7 0 0
92.8 0 0
92.9 0 0
93 0 0
93.1 0 0
93.2 0 0
93.3 0 0
93.4 0 0
93.5 0 0
93.6 0 0
93.7 0 0
93.8 0 0
93.9 0 0
94 0 0
94.1 0 0
94.2 0 0
94.3 0 0
94.4 0 0
94.5 0 0
94.6 0 0
94.7 0 0
94.8 0 0
94.9 0 0
95 0 0
95.1 0 0
95.2 0 0
95.3 0 0
95.4 0 0
95.5 0 0
95.6 0 0
95.7 0 0
95.8 0 0
95.9 0 0
96 0 0
96.1 0 0
96.2 0 0
96.3 0 0
96.4 0 0
96.5 0 0
96.6 0 0
96.7 0 0
96.8 0 0
96.9 0 0
97 0 0
97.1 0 0
97.2 0 0
97.3 0 0
97.4 0 0
97.5 0 0
97.6 0 0
97.7 0 0
97.8 0 0
97.9 0 0
98 0 0
98.1 0 0
98.2 0 0
98.3 0 0
98.4 0 0
98.5 0 0
98.6 0 0
98.7 0 0
98.8 0 0
98.9 0 0
99 0 0
99.1 0 0
99.2 0 0
99.3 0 0
99.4 0 0
99.5 0 0
99.6 0 0
99.7 0 0
99.8 0 0
99.9 0 0
100 0 0
100.1 0 0
100.2 0 0
100.3 0 0
100.4 0 0
100.5 0 0
100.6 0 0
100.7 0 0
100.8 0 0
100.9 0 0
101 0 0
101.1 0 0
101.2 0 0
101.3 0 0
101.4 0 0
101.5 0 0
101.6 0 0
101.7 0 0
101.8 0 0
101.9 0 0
102 0 0
102.1 0 0
102.2 0 0
102.3 0 0
102.4 0 0
102.5 0 0
102.6 0 0
102.7 0 0
102.8 0 0
102.9 0 0
103 0 0
103.1 0 0
103.2 0 0
103.3 0 0
103.4 0 0
103.5 0 0
103.6 0 0
103.7 0 0
103.8 0 0
103.9 0 0
104 0 0
104.1 0 0
104.2 0 0
104.3 0 0
104.4 0 0
104.5 0 0
104.6 0 0
104.7 0 0
104.8 0 0
104.9 0 0
105 0 0
105.1 0 0
105.2 0 0
105.3 0 0
105.4 0 0
105.5 0 0
105.6 0 0
105.7 0 0
105.8 0 0
105.9 0 0
106 0 0
106.1 0 0
106.2 0 0
106.3 0 0
106.4 0 0
106.5 0 0
106.6 0 0
106.7 0 0
106.8 0 0
106.9 0 0
107 0 0
107.1 0 0
107.2 0 0
107.3 0 0
107.4 0 0
107.5 0 0
107.6 0 0
107.7 0 0
107.8 0 0
107.9 0 0
108 0 0
108.1 0 0
108.2 0 0
108.3 0 0
108.4 0 0
108.5 0 0
108.6 0 0
108.7 0 0
108.8 0 0
108.9 0 0
109 0 0
109.1 0 0
109.2 0 0
109.3 0 0
109.4 0 0
109.5 0 0
109.6 0 0
109.7 0 0
109.8 0 0
109.9 0 0
110 0 0
110.1 0 0
110.2 0 0
110.3 0 0
110.4 0 0
110.5 0 0
110.6 0 0
110.7 0 0
110.8 0 0
110.9 0 0
111 0 0
111.1 0 0
111.2 0 0
111.3 0 0
111.4 0 0
111.5 0 0
111.6 0 0
111.7 0 0
111.8 0 0
111.9 0 0
112 0 0
[...]
POINT_DATA 83304

SCALARS pressure float 1
LOOKUP_TABLE default
0
0
0
0
0
0
0
0
0
0
0
0
0
0
0
0
0
0
0
0
0
0
0
0
0
0
0
0
0
0
0
0
0
0
0
0
0
0
0
0
0
0
0
0
0
0
0
0
0
0
0
0
0
0
0
0
0
0
0
0
0
0
0
0
0
0
0
0
0
0
0
0
0
0
0
0
0
0
0
0
0
0
0
0
0
0
0
0
0
0
0
0
0
0
0
0
0
0
0
0
0
0
0
0
0
0
0
0
0
0
0
0
0
0
0
0
0
0
0
0
0
0
0
0
0
0
0
0
0
0
0
0
0
0
0
0
0
0
0
0
0
0
0
0
0
0
0
0
0
0
0
0
0
0
0
0
0
0
0
0
0
0
0
0
0
0
0
0
0
0
0
0
0
0
0
0
0
0
0
0
0
0
0
0
0
0
0
0
0
0
0
0
0
0
0
0
0
0
0
0
0
0
0
0
0
0
0
0
0
0
0
0
0
0
0
0
0
0
0
0
0
0
0
0
0
0
0
0
0
0
0
0
0
0
0
0
0
0
0
0
0
0
0
0
0
0
0
0
0
0
0
0
0
0
0
0
0
0
0
0
0
0
0
0
0
0
0
0
0
0
0
0
0
0
0
0
0
0
0
0
0
0
0
0
0
0
0
0
0
0
0
0
0
0
0
0
0
0
0
0
0
0
0
0
0
0
0
0
0
0
0
0
0
0
0
0
0
0
0
0
0
0
0
0
0
0
0
0
0
0
0
0
0
0
0
0
0
0
0
0
0
0
0
0
0
0
0
0
0
0
0
0
0
0
0
0
0
0
0
0
0
0
0
0
0
0
0
0
0
0
0
0
0
0
0
0
0
0
0
0
0
0
0
0
0
0
0
0
0
0
0
0
0
0
0
0
0
0
0
0
0
0
0
0
0
0
0
0
0
0
0
0
0
0
0
0
0
0
0
0
0
0
0
0
0
0
0
0
0
0
0
0
0
0
0
0
0
0
0
0
0
0
0
0
0
0
0
0
0
0
0
0
0
0
0
0
0
0
0
0
0
0
0
0
0
0
0
0
0
0
0
0
0
0
0
0
0
0
0
0
0
0
0
0
0
0
0
0
0
0
0
0
0
0
0
0
0
0
0
0
0
0
0
0
0
0
0
0
0
0
0
0
0
0
0
0
0
0
0
0
0
0
0
0
0
0
0
0
0
0
0
0
0
0
0
0
0
0
0
0
0
0
0
0
0
0
0
0
0
0
0
0
0
0
0
0
0
0
0
0
0
0
0
0
0
0
0
0
0
0
0
0
0
0
0
0
0
0
0
0
0
0
0
0
0
0
0
0
0
0
0
0
0
0
0
0
0
0
0
0
0
0
0
0
0
0
0
0
0
0
0
0
0
0
0
0
0
0
0
0
0
0
0
0
0
0
0
0
0
0
0
0
0
0
0
0
0
0
0
0
0
0
0
0
0
0
0
0
0
0
0
0
0
0
0
0
0
0
0
0
0
0
0
0
0
0
0
0
0
0
0
0
0
0
0
0
0
0
0
0
0
0
0
0
0
0
0
0
0
0
0
0
0
0
0
0
0
0
0
0
0
0
0
0
0
0
0
0
0
0
0
0
0
0
0
0
0
0
0
0
0
0
0
0
0
0
0
0
0
0
0
0
0
0
0
0
0
0
0
0
0
0
0
0
0
0
0
0
0
0
0
0
0
0
0
0
0
0
0
0
0
0
0
0
0
0
0
0
0
0
0
0
0
0
0
0
0
0
0
0
0
0
0
0
0
0
0
0
0
0
0
0
0
0
0
0
0
0
0
0
0
0
0
0
0
0
0
0
0
0
0
0
0
0
0
0
0
0
0
0
0
0
0
0
0
0
0
0
0
0
0
0
0
0
0
0
0
0
0
0
0
0
0
0
0
0
0
0
0
0
0
0
0
0
0
0
0
0
0
0
0
0
0
0
0
0
0
0
0
0
0
0
0
0
0
0
0
0
0
0
0
0
0
0
0
0
0
0
0
0
0
0
0
0
0
0
0
0
0
0
0
0
0
0
0
0
0
0
0
0
0
0
0
0
0
0
0
0
0
0
0
0
0
0
0
0
0
0
0
0
0
0
0
0
0
0
0
0
0
0
0
0
0
0
0
0
0
0
0
0
0
0
0
0
0
0
0
0
0
0
0
0
0
0
0
0
0
0
0
0
0
0
0
0
0
0
0
0
0
0
0
0
0
0
0
0
0
0
0
0
0
0
0
0
0
0
0
0
0
0
0
0
0
0
0
0
0
0
0
0
0
0
0
0
0
0
0
0
0
0
0
0
0
0
0
0
0
0
0
0
0
0
0
0
0
0
0
0
0
0
0
0
0
0
0
0
0
0
0
0
0
0
0
0
0
0
0
0
0
0
0
0
0
0
0
0
0
0
0
0
0
0
0
0
0
0
0
0
0
0
0
0
0
0
0
0
0
0
0
0
0
0
0
0
0
0
0
0
0
0
0
0
0
0
0
0
0
0
0
0
0
0
0
0
0
0
0
0
0
0
0
0
0
0
0
0
0
0
0
0
0
0
0
0
0
0
0
0
0
0
0
0
0
0
0
0
0
0
0
0
0
0
0
0
0
0
0
0
0
0
0
0
0
0
0
0
0
0
0
0
0
0
0
0
0
0
0
0
0
0
0
0
0
0
0
0
0
0
0
0
0
0
0
0
0
0
0
0
0
0
0
0
0
0
0
0
0
0
0
0
0
0
0
0
0
0
0
0
0
0
0
0
0
0
0
0
0
0
0
0
0
0
0
0
0
0
0
0
0
0
0
0
0
0
0
0
0
0
0
0
0
0
0
0
0
0
0
0
0
0
0
0
0
0
0
0
0
0
0
0
0
0
0
0
0
0
0
0
0
0
0
0
0
0
0
0
0
0
0
0
0
0
0
0
0
0
0
0
0
0
0
0
0
0
0
0
0
0
0
0
0
0
0
0
0
0
0
0
0
0
0
0
0
0
0
0
0
0
0
0
0
0
0
0
0
0
0
0
0
0
0
0
0
0
0
0
0
0
0
0
0
0
0
0
0
0
0
0
0
0
0
0
0
0
0
0
0
0
0
0
0
0
0
0
0
0
0
0
0
0
0
0
0
0
0
0
0
0
0
0
0
0
0
0
0
0
0
0
0
0
0
0
0
0
0
0
0
0
0
0
0
0
0
0
0
0
0
0
0
0
0
0
0
0
0
0
0
0
0
0
0
0
0
0
0
0
0
0
0
0
0
0
0
0
0
0
0
0
0
0
0
0
0
0
0
0
0
0
0
0
0
0
0
0
0
0
0
0
0
0
0
0
0
0
0
0
0
0
0
0
0
0
0
0
0
0
0
0
0
0
0
0
0
0
0
0
0
0
0
0
0
0
0
0
0
0
0
0
0
0
0
0
0
0
0
0
0
0
0
0
0
0
0
0
0
0
0
0
0
0
0
0
0
0
0
0
0
0
0
0
0
0
0
0
0
0
0
0
0
0
0
0
0
0
0
0
0
0
0
0
0
0
0
0
0
0
0
0
0
0
0
0
0
0
0
0
0
0
0
0
0
0
0
0
0
0
0
0
0
0
0
0
0
0
0
0
0
0
0
0
0
0
0
0.0776415
0.052903
0.0436505
0.0357426
0.03048
0.0271088
0.0248019
0.023116
0.0218008
0.0207277
0.0198235
0.0190436
0.0183596
0.0177519
0.0172066
0.0167134
0.0162643
0.0158532
0.0154749
0.0151254
0.0148012
0.0144993
0.0142174
0.0139533
0.0137051
0.0134714
0.0132506
0.0130416
0.0128434
0.0126549
0.0124753
0.0123039
0.0121401
0.0119833
0.0118328
0.0116884
0.0115494
0.0114156
0.0112866
0.0111621
0.0110418
0.0109255
0.0108128
0.0107037
0.0105979
0.0104953
0.0103956
0.0102988
0.0102046
0.010113
0.0100239
0.00993709
0.00985252
0.0097701
0.00968971
0.00961129
0.00953473
0.00945997
0.00938693
0.00931557
0.00924584
0.00917772
0.00911122
0.00904638
0.00898325
0.00892195
0.00886262
0.00880541
0.0087505
0.00869805
0.00864817
0.0086009
0.00855614
0.00851359
0.00847274
0.00843279
0.00839265
0.00835091
0.00830597
0.00825604
0.00819938
0.0081345
0.00806042
0.00797704
0.00788548
0.00778839
0.00769022
0.00759738
0.00751812
0.00746228
0.00744064
0.00746399
0.00754186
0.00768104
0.00788387
0.00814654
0.00845747
0.00879602
0.00913165
0.00942381
0.00962276
0.00967158
0.00950961
0.00907778
0.00832649
0.00722393
0.00576497
0.0039835
0.00196429
-0.000148863
-0.00215425
-0.00380977
-0.00486172
-0.00507629
-0.00426585
-0.00231023
0.000835203
0.00514526
0.0105308
0.0168555
0.0239496
0.031625
0.0396888
0.0479397
0.0561648
0.0641716
0.071782
0.0787855
0.0849408
0.0900496
0.0940154
0.0968192
0.0984574
0.0989186
0.0982062
0.0963676
0.0935003
0.089742
0.0852547
0.0802125
0.0747912
0.0691586
0.0634667
0.0578454
0.052399
0.0472063
0.0423221
0.0377805
0.0335985
0.0297796
0.026317
0.0231965
0.0203993
0.0179032
0.0156845
0.0137193
0.0119836
0.0104547
0.00911099
0.00793232
0.00690024
0.00599787
0.00520996
0.0045228
0.00392412
0.00340302
0.00294979
0.0025559
0.00221378
0.00191681
0.00165915
0.00143572
0.00124204
0.00107422
0.000928852
0.000802979
0.000694019
0.000599723
0.00051814
0.000447572
0.000386547
0.000333785
0.000288177
0.00024876
0.000214701
0.000185277
0.00015986
0.00013791
0.000118956
0.000102592
8.84668e-05
7.62754e-05
6.57547e-05
5.66773e-05
4.88462e-05
4.20913e-05
3.62656e-05
3.12419e-05
2.69104e-05
2.31763e-05
1.99576e-05
1.71836e-05
1.47932e-05
1.27336e-05
1.09592e-05
9.4308e-06
8.11446e-06
6.98089e-06
6.00486e-06
5.16459e-06
4.44129e-06
3.81876e-06
3.28303e-06
2.82207e-06
2.42549e-06
2.08435e-06
1.79094e-06
1.53861e-06
1.32165e-06
1.13512e-06
9.74771e-07
8.36955e-07
7.18518e-07
6.16751e-07
5.2932e-07
4.54215e-07
3.89708e-07
3.34312e-07
2.86747e-07
2.45912e-07
2.10859e-07
1.80774e-07
1.54958e-07
1.32807e-07
1.13805e-07
9.75056e-08
8.35272e-08
7.15411e-08
6.12648e-08
5.2456e-08
4.49061e-08
3.84364e-08
3.28931e-08
2.81444e-08
2.40771e-08
2.05938e-08
1.76113e-08
1.50579e-08
1.28723e-08
1.10018e-08
9.40116e-09
8.03178e-09
6.86043e-09
5.85867e-09
5.00213e-09
4.27003e-09
3.64457e-09
3.11052e-09
2.65477e-09
2.26599e-09
1.93437e-09
1.6514e-09
1.40978e-09
1.20331e-09
1.02676e-09
8.75635e-10
7.46012e-10
6.34333e-10
5.37393e-10
4.52476e-10
3.7765e-10
3.12063e-10
2.56041e-10
2.10828e-10
1.77895e-10
1.57947e-10
1.49924e-10
1.50405e-10
1.53753e-10
1.53133e-10
1.42244e-10
1.17291e-10
7.85377e-11
3.08477e-11
-1.71334e-11
-5.50796e-11
-7.38466e-11
-6.82731e-11
-3.90452e-11
7.01582e-12
5.84258e-11
1.01919e-10
1.2594e-10
1.23754e-10
9.527e-11
4.70651e-11
-9.39376e-12
-6.07961e-11
-9.544e-11
-1.06132e-10
-9.17842e-11
-5.73431e-11
-1.21887e-11
3.24838e-11
6.65288e-11
8.32043e-11
8.04605e-11
6.09432e-11
3.08491e-11
-1.94799e-12
-2.99449e-11
-4.77044e-11
-5.28287e-11
-4.6076e-11
-3.07177e-11
-1.14071e-11
7.09266e-12
2.09962e-11
2.81726e-11
2.83255e-11
2.27232e-11
1.36258e-11
3.59879e-12
-5.10617e-12
-1.09757e-11
-1.34079e-11
-1.26485e-11
-9.55369e-12
-5.27338e-12
-9.40716e-13
2.56291e-12
4.73396e-12
5.46178e-12
4.95609e-12
3.62431e-12
1.93767e-12
3.17988e-13
-9.36028e-13
-1.67737e-12
-1.90021e-12
-1.70287e-12
-1.23948e-12
-6.73483e-13
-1.42279e-13
2.6277e-13
5.01242e-13
5.76813e-13
5.23529e-13
3.90051e-13
2.25714e-13
7.06853e-14
-4.90352e-14
-1.22252e-13
-1.50091e-13
-1.41879e-13
-1.10726e-13
-6.97986e-14
-2.97872e-14
2.31061e-15
2.3292e-14
3.30846e-14
3.37051e-14
2.81704e-14
1.95905e-14
1.05566e-14
2.83985e-15
-2.64968e-15
-5.72696e-15
-6.70836e-15
-6.174e-15
-4.76652e-15
-3.05111e-15
-1.44103e-15
-1.78517e-16
6.45651e-16
1.05212e-15
1.12747e-15
9.83808e-16
7.29091e-16
4.4944e-16
2.02243e-16
1.70755e-17
-9.87217e-17
-1.5266e-16
-1.59956e-16
-1.37827e-16
-1.01696e-16
-6.32226e-17
-2.97889e-17
-4.94427e-18
1.06547e-17
1.81814e-17
1.96895e-17
1.74009e-17
1.3257e-17
8.70475e-18
4.65727e-18
1.56228e-18
-4.77983e-19
-1.57832e-18
-1.95951e-18
-1.8664e-18
-1.51686e-18
-1.07713e-18
-6.56567e-19
-3.14108e-19
-7.04715e-20
7.86193e-20
1.50805e-19
1.68348e-19
1.52466e-19
1.20353e-19
8.41714e-20
5.13304e-20
2.54113e-20
7.30677e-21
-3.7148e-21
-9.16146e-21
-1.07274e-20
-9.94047e-21
-7.99708e-21
-5.72524e-21
-3.6236e-21
-1.93488e-21
-7.26056e-22
4.07169e-23
4.53537e-22
6.13699e-22
6.13859e-22
5.27779e-22
4.07837e-22
2.87041e-22
1.83105e-22
1.02961e-22
4.6797e-23
1.12198e-23
-8.54565e-24
-1.72899e-23
-1.91039e-23
-1.71121e-23
-1.34776e-23
-9.54936e-24
-6.05934e-24
-3.31548e-24
-1.36398e-24
-1.1093e-25
5.94872e-25
9.11361e-25
9.76574e-25
8.98123e-25
7.52379e-25
5.88672e-25
4.35386e-25
3.06109e-25
2.04898e-25
1.30322e-25
7.82989e-26
4.39162e-26
2.24742e-26
9.98891e-27
3.35184e-27
2.94692e-28
-7.40068e-28
-7.57696e-28
-3.62871e-28
1.12528e-28
5.10717e-28
7.76914e-28
9.11334e-28
9.38891e-28
8.91564e-28
7.99223e-28
6.85744e-28
5.68148e-28
4.57279e-28
3.59085e-28
2.76001e-28
2.08161e-28
1.54354e-28
1.12706e-28
8.11443e-29
5.76653e-29
4.04869e-29
2.81058e-29
1.93042e-29
1.31261e-29
8.84038e-30
5.90003e-30
3.90357e-30
2.56125e-30
1.66711e-30
1.07678e-30
6.90331e-31
4.39402e-31
2.7774e-31
1.74372e-31
1.08757e-31
6.73999e-32
4.151e-32
2.541e-32
1.54624e-32
9.35462e-33
5.62741e-33
3.36647e-33
2.00296e-33
1.18535e-33
6.97815e-34
4.08692e-34
2.3815e-34
1.38083e-34
7.96716e-35
4.57478e-35
2.61441e-35
1.48711e-35
8.41992e-36
4.74566e-36
2.66278e-36
1.48747e-36
8.27303e-37
4.58145e-37
2.52632e-37
1.38721e-37
7.58556e-38
4.13088e-38
2.24041e-38
1.21021e-38
6.51121e-39
3.48938e-39
1.86268e-39
9.90483e-40
5.24677e-40
2.76878e-40
1.45563e-40
7.62422e-41
3.97865e-41
2.06865e-41
1.07167e-41
5.53189e-42
2.84535e-42
1.45835e-42
7.44839e-43
3.79097e-43
1.92281e-43
9.71928e-44
4.89613e-44
2.45813e-44
1.22999e-44
6.13407e-45
3.04903e-45
1.5106e-45
7.45966e-46
3.67183e-46
1.80156e-46
8.81106e-47
4.29564e-47
2.08765e-47
1.01141e-47
4.88473e-48
2.35186e-48
1.12887e-48
5.40194e-49
2.57712e-49
1.22576e-49
5.81264e-50
2.74816e-50
1.29545e-50
6.08857e-51
2.85322e-51
1.33317e-51
6.21115e-52
2.88539e-52
1.33656e-52
6.17345e-53
2.84336e-53
1.30589e-53
5.9808e-54
2.73145e-54
1.24399e-54
5.64983e-55
2.55891e-55
1.15579e-55
5.20615e-56
2.33869e-56
1.04773e-56
4.68121e-57
2.08593e-57
9.27002e-58
4.10872e-58
1.81628e-58
8.00779e-59
3.5213e-59
1.5444e-59
6.75593e-60
2.94772e-60
1.28282e-60
5.56841e-61
2.41093e-61
1.0412e-61
4.48516e-62
1.9272e-62
8.26004e-63
3.53142e-63
1.50602e-63
6.40671e-64
2.71871e-64
1.15085e-64
4.85969e-65
2.04708e-65
8.60205e-66
3.6059e-66
1.50791e-66
6.29056e-67
2.61794e-67
1.08691e-67
4.50181e-68
1.86017e-68
7.6681e-69
3.15355e-69
1.29387e-69
5.2962e-70
2.16284e-70
8.81202e-71
3.58195e-71
1.45265e-71
5.87762e-72
2.37272e-72
9.55651e-73
3.84028e-73
1.53971e-73
6.15933e-74
2.45837e-74
9.79007e-75
3.89001e-75
1.54222e-75
6.10061e-76
2.40789e-76
9.48288e-77
3.72637e-77
1.46109e-77
5.71631e-78
2.23155e-78
8.69262e-79
3.37872e-79
1.31043e-79
5.07153e-80
1.95852e-80
7.54724e-81
2.90214e-81
1.11358e-81
4.26386e-82
1.62916e-82
6.21165e-83
2.36339e-83
8.97326e-84
3.39982e-84
1.28545e-84
4.85008e-85
1.82617e-85
6.86172e-86
2.57294e-86
9.62787e-87
3.59534e-87
1.33986e-87
4.98303e-88
1.84945e-88
6.85028e-89
2.53218e-89
9.34125e-90
3.43906e-90
1.26358e-90
4.63333e-91
1.69558e-91
6.19264e-92
2.2572e-92
8.21116e-93
2.98112e-93
1.08018e-93
3.90627e-94
1.40985e-94
5.0785e-95
1.82579e-95
6.55116e-96
2.34608e-96
8.38545e-97
2.99137e-97
1.06507e-97
3.78486e-98
1.34242e-98
4.75222e-99
1.6791e-99
5.92145e-100
2.08427e-100
7.3225e-101
2.56769e-101
8.98685e-102
3.13946e-102
1.09468e-102
3.80984e-103
1.32347e-103
4.58896e-104
1.5882e-104
5.48647e-105
1.8918e-105
6.51113e-106
2.23686e-106
7.67046e-107
2.62548e-107
8.97018e-108
3.05916e-108
1.04138e-108
3.5386e-109
1.20023e-109
4.06362e-110
1.37334e-110
4.63298e-111
1.56014e-111
5.24429e-112
1.75968e-112
5.89394e-113
1.97063e-113
6.57706e-114
2.19124e-114
7.28749e-115
2.41936e-115
8.01784e-116
2.65248e-116
8.75959e-117
2.88772e-117
9.50319e-118
3.12195e-118
1.02383e-118
3.35177e-119
1.09539e-119
3.57367e-120
1.16389e-120
3.78407e-121
1.22818e-121
3.97942e-122
1.28717e-122
4.15631e-123
1.33981e-123
4.31159e-124
1.38515e-124
4.44241e-125
1.42235e-125
4.54637e-126
1.45074e-126
4.62154e-127
1.46979e-127
4.66655e-128
1.47915e-128
4.68063e-129
1.47868e-129
4.66361e-130
1.46843e-130
4.61597e-131
1.44863e-131
4.53875e-132
1.41971e-132
4.43356e-133
1.38227e-133
4.30253e-134
1.33704e-134
4.14821e-135
1.2849e-135
3.9735e-136
1.2268e-136
3.78157e-137
1.16378e-137
3.57576e-138
1.0969e-138
3.35948e-139
1.02726e-139
3.13613e-140
9.55904e-141
2.909e-141
8.83856e-142
2.68121e-142
8.12066e-143
2.45565e-143
7.41403e-144
2.2349e-144
6.72636e-145
2.02125e-145
6.06426e-146
1.81659e-146
5.43323e-147
1.62249e-147
4.8376e-148
1.44014e-148
4.28059e-149
1.27037e-149
3.76433e-150
1.11371e-150
3.28996e-151
9.70377e-152
2.85775e-152
8.40313e-153
2.46714e-153
7.23244e-154
2.11696e-154
6.187e-155
1.80546e-155
5.26061e-156
1.53048e-156
4.44592e-157
1.28956e-157
3.73479e-158
1.08003e-158
3.11858e-159
8.99137e-160
2.58848e-160
7.44071e-161
2.13568e-161
6.12084e-162
1.75162e-162
5.00524e-163
1.42812e-163
4.06878e-164
1.1575e-164
3.28804e-165
9.3264e-166
2.64151e-166
7.47056e-167
2.10969e-167
5.94904e-168
1.6751e-168
4.7098e-169
1.32231e-169
3.70706e-170
1.03776e-170
2.90091e-171
8.09735e-172
2.25696e-172
6.28174e-173
1.74586e-173
4.84523e-174
1.34275e-174
3.71582e-175
1.02681e-175
2.8334e-176
7.80738e-177
2.14824e-177
5.9026e-178
1.61952e-178
4.43725e-179
1.21402e-179
3.31683e-180
9.04916e-181
2.46536e-181
6.70721e-182
1.82218e-182
4.94348e-183
1.33926e-183
3.62318e-184
9.78831e-185
2.6407e-185
7.1142e-186
1.91394e-186
5.14195e-187
1.37951e-187
3.6959e-188
9.88814e-189
2.64186e-189
7.04864e-190
1.87803e-190
4.99694e-191
1.32773e-191
3.52304e-192
9.33538e-193
2.47032e-193
6.528e-194
1.72273e-194
4.54005e-195
1.19485e-195
3.14036e-196
8.24242e-197
2.16044e-197
5.65515e-198
1.47829e-198
3.85911e-199
1.00608e-199
2.61935e-200
6.81038e-201
1.76834e-201
4.58544e-202
1.18745e-202
3.07093e-203
7.9313e-204
2.0457e-204
5.2694e-205
1.35552e-205
3.48234e-206
8.93437e-207
2.28919e-207
5.8577e-208
1.49692e-208
3.82031e-209
9.73707e-210
2.47849e-210
6.30051e-211
1.59954e-211
4.05554e-212
1.02691e-212
2.59688e-213
6.5585e-214
1.65422e-214
4.16692e-215
1.04827e-215
2.63374e-216
6.60856e-217
1.65608e-217
4.14471e-218
1.03597e-218
2.58607e-219
6.44728e-220
1.60529e-220
3.99186e-221
9.9138e-222
2.45895e-222
6.09122e-223
1.50697e-223
3.7235e-224
9.18853e-225
2.26459e-225
5.57417e-226
1.37032e-226
3.36443e-227
8.24999e-228
2.02044e-228
4.94189e-229
1.20723e-229
2.94539e-230
7.17712e-231
1.74667e-231
4.2455e-232
1.03063e-232
2.49881e-233
6.05093e-234
1.46342e-234
3.53488e-235
8.52787e-236
2.05479e-236
4.94486e-237
1.18851e-237
2.85308e-238
6.84051e-239
1.63805e-239
3.91769e-240
9.35831e-241
2.2327e-241
5.32023e-242
1.26618e-242
3.00976e-243
7.14553e-244
1.69436e-244
4.0128e-245
9.49202e-246
2.24254e-246
5.29169e-247
1.24715e-247
2.93575e-248
6.90225e-249
1.62083e-249
3.80152e-250
8.9054e-251
2.08365e-251
4.86938e-252
1.13658e-252
2.64973e-253
6.16998e-254
1.43497e-254
3.33338e-255
7.73401e-256
1.79228e-256
4.14847e-257
9.59075e-258
2.21462e-258
5.10775e-259
1.17664e-259
2.70734e-260
6.22194e-261
1.42822e-261
3.27454e-262
7.4988e-263
1.71523e-263
3.91867e-264
8.9422e-265
2.03817e-265
4.64006e-266
1.05511e-266
2.39643e-267
5.43653e-268
1.23189e-268
2.78813e-269
6.30301e-270
1.42324e-270
3.20996e-271
7.23133e-272
1.62716e-272
3.65713e-273
8.21007e-274
1.84098e-274
4.12335e-275
9.22464e-276
2.06133e-276
4.60092e-277
1.02575e-277
2.28423e-278
5.08086e-279
1.12885e-279
2.50519e-280
5.55322e-281
1.22957e-281
2.71935e-282
6.00732e-283
1.32557e-283
2.92165e-284
6.43221e-285
1.41449e-285
3.10702e-286
6.81707e-287
1.49403e-287
3.27061e-288
7.15167e-289
1.56205e-289
3.40796e-290
7.42684e-291
1.61668e-291
3.51525e-292
7.63486e-293
1.65637e-293
3.58946e-294
7.76986e-295
1.68001e-295
3.62849e-296
7.82807e-297
1.68694e-297
3.63128e-298
7.80797e-299
1.677e-299
3.59788e-300
7.71043e-301
1.65055e-301
3.52938e-302
7.53856e-303
1.60842e-303
3.42791e-304
7.29764e-305
1.55188e-305
3.2965e-306
6.99477e-307
1.48257e-307
3.13894e-308
6.63857e-309
1.40246e-309
2.95959e-310
6.23877e-311
1.31369e-311
2.7632e-312
5.80578e-313
1.21853e-313
2.5547e-314
5.35022e-315
1.11927e-315
2.33897e-316
4.88254e-317
1.01812e-317
2.12071e-318
4.4127e-319
9.17233e-320
1.90512e-320
3.95253e-321
8.15208e-322
1.67982e-322
2.96439e-323
0
0
0
0
0
0
0
0
0
0
0
0
0
0
0
0
0
0
0
0
0
0
0
0
0
0
0
0
0
0
0
0
0
0
0
0
0
0
0
0
0
0
0
0
0
0
0
0
0
0
0
0
0
0
0
0
0
0
0
0
0
0
0
0
0
0
0
0
0
0
0
0
0
0
0
0
0
0
0
0
0
0
0
0
0
0
0
0
0
0
0
0
0
0
0
0
0
0
0
0
0
0
0
0
0
0
0
0
0
0
0
0
0
0
0
0
0
0
0
0
0
0
0
0
0
0
0
0
0
0
0
0
0
0
0
0
0
0
0
0
0
0
0
0
0
0
0
0
0
0
0
0
0
0
0
0
0
0
0
0
0
0
0
0
0
0
0
0
0
0
0
0
0
0
0
0
0
0
0
0
0
0
0
0
0
0
0
0
0
0
0
0
0
0
0
0
0
0
0
0
0
0
0
0
0
0
0
0
0
0
0
0
0
0
0
0
0
0
0
0
0
0
0
0
0
0
0
0
0
0
0
0
0
0
0
0
0
0
0
0
0
0
0
0
0
0
0
0
0
0
0
0
0
0
0
0
0
0
0
0
0
0
0
0
0
0
0
0
0
0
0
0
0
0
0
0
0
0
0
0
0
0
0
0
0
0
0
0
0
0
0
0
0
0
0
0
0
0
0
0
0
0
0
0
0
0
0
0
0
0
0
0
0
0
0
0
0
0
0
0
0
0
0
0
0
0
0
0
0
0
0
0
0
0
0
0
0
0
0
0
0
0
0
0
0
0
0
0
0
0
0
0
0
0
0
0
0
0
0
0
0
0
0
0
0
0
0
0
0
0
0
0
0
0
0
0
0
0
0
0
0
0
0
0
0
0
0
0
0
0
0
0
0
0
0
0
0
0
0
0
0
0
0
0
0
0
0
0
0
0
0
0
0
0
0
0
0
0
0
0
0
0
0
0
0
0
0
0
0
0
0
0
0
0
0
0
0
0
0
0
0
0
0
0
0
0
0
0
0
0
0
0
0
0
0
0
0
0
0
0
0
0
0
0
0
0
0
0
0
0
0
0
0
0
0
0
0
0
0
0
0
0
0
0
0
0
0
0
0
0
0
0
0
0
0
0
0
0
0
0
0
0
0
0
0
0
0
0
0
0
0
0
0
0
0
0
0
0
0
0
0
0
0
0
0
0
0.062787
0.0345542
0.0299574
0.025277
0.0221391
0.0200069
0.0184495
0.0172639
0.0163155
0.0155312
0.0148652
0.0142884
0.013781
0.0133294
0.0129237
0.0125563
0.0122216
0.0119149
0.0116326
0.0113716
0.0111293
0.0109037
0.0106929
0.0104953
0.0103096
0.0101346
0.00996925
0.00981273
0.00966419
0.00952296
0.0093884
0.00925997
0.00913718
0.00901959
0.0089068
0.00879848
0.00869429
0.00859396
0.00849723
0.00840387
0.00831365
0.00822641
0.00814195
0.00806012
0.00798078
0.00790379
0.00782904
0.00775641
0.0076858
0.00761711
0.00755026
0.00748516
0.00742174
0.00735992
0.00729963
0.0072408
0.00718338
0.0071273
0.00707251
0.00701898
0.00696666
0.00691554
0.00686562
0.00681692
0.0067695
0.00672343
0.00667882
0.00663578
0.00659445
0.00655496
0.0065174
0.00648183
0.00644817
0.00641625
0.0063857
0.00635596
0.00632621
0.00629545
0.00626246
0.0062259
0.00618441
0.00613681
0.00608226
0.00602053
0.00595229
0.00587932
0.00580476
0.00573321
0.00567074
0.00562466
0.00560313
0.00561442
0.00566609
0.00576378
0.00590995
0.00610262
0.00633406
0.00658982
0.00684802
0.00707923
0.00724696
0.00730903
0.00721985
0.00693407
0.00641201
0.00562577
0.00456542
0.00324805
0.00172798
0.000104132
-0.0014773
-0.00283259
-0.0037624
-0.00407729
-0.00362088
-0.00228899
-4.13625e-05
0.00310198
0.00706678
0.0117372
0.0169669
0.0225935
0.0284518
0.0343711
0.0401807
0.0457304
0.0508933
0.0555377
0.0595274
0.0627638
0.0652163
0.0669029
0.0678495
0.0680738
0.0675966
0.0664546
0.0647038
0.0624144
0.0596656
0.0565425
0.0531343
0.0495321
0.0458252
0.0420967
0.0384201
0.0348562
0.0314527
0.0282439
0.0252524
0.0224901
0.0199608
0.0176617
0.0155849
0.0137192
0.0120511
0.0105659
0.00924831
0.00808308
0.00705543
0.00615132
0.00535756
0.00466197
0.0040534
0.00352173
0.00305781
0.00265346
0.00230138
0.00199507
0.00172879
0.00149747
0.00129663
0.00112237
0.000971233
0.000840212
0.000726677
0.00062833
0.000543169
0.000469448
0.000405649
0.000350452
0.000302709
0.000261422
0.000225727
0.000194873
0.000168209
0.00014517
0.000125267
0.000108076
9.32302e-05
8.04118e-05
6.93456e-05
5.97938e-05
5.15503e-05
4.4437e-05
3.82998e-05
3.30057e-05
2.84394e-05
2.45015e-05
2.11059e-05
1.81785e-05
1.56549e-05
1.34799e-05
1.16054e-05
9.99026e-06
8.59872e-06
7.4e-06
6.36752e-06
5.47835e-06
4.7127e-06
4.0535e-06
3.48603e-06
2.99759e-06
2.57723e-06
2.21552e-06
1.9043e-06
1.63657e-06
1.40629e-06
1.20823e-06
1.03793e-06
8.91497e-07
7.65617e-07
6.57415e-07
5.64424e-07
4.84515e-07
4.15858e-07
3.56877e-07
3.06216e-07
2.62707e-07
2.25345e-07
1.93268e-07
1.65731e-07
1.42096e-07
1.21812e-07
1.04407e-07
8.94749e-08
7.6666e-08
6.56802e-08
5.62594e-08
4.8182e-08
4.12574e-08
3.53222e-08
3.02356e-08