# vtk DataFile Version 2.0
FlowField
ASCII
DATASET STRUCTURED_GRID
DIMENSIONS 1602 1 52
POINTS 83304 float
0 0 0
0.1 0 0
0.2 0 0
0.3 0 0
0.4 0 0
0.5 0 0
0.6 0 0
0.7 0 0
0.8 0 0
0.9 0 0
1 0 0
1.1 0 0
1.2 0 0
1.3 0 0
1.4 0 0
1.5 0 0
1.6 0 0
1.7 0 0
1.8 0 0
1.9 0 0
2 0 0
2.1 0 0
2.2 0 0
2.3 0 0
2.4 0 0
2.5 0 0
2.6 0 0
2.7 0 0
2.8 0 0
2.9 0 0
3 0 0
3.1 0 0
3.2 0 0
3.3 0 0
3.4 0 0
3.5 0 0
3.6 0 0
3.7 0 0
3.8 0 0
3.9 0 0
4 0 0
4.1 0 0
4.2 0 0
4.3 0 0
4.4 0 0
4.5 0 0
4.6 0 0
4.7 0 0
4.8 0 0
4.9 0 0
5 0 0
5.1 0 0
5.2 0 0
5.3 0 0
5.4 0 0
5.5 0 0
5.6 0 0
5.7 0 0
5.8 0 0
5.9 0 0
6 0 0
6.1 0 0
6.2 0 0
6.3 0 0
6.4 0 0
6.5 0 0
6.6 0 0
6.7 0 0
6.8 0 0
6.9 0 0
7 0 0
7.1 0 0
7.2 0 0
7.3 0 0
7.4 0 0
7.5 0 0
7.6 0 0
7.7 0 0
7.8 0 0
7.9 0 0
8 0 0
8.1 0 0
8.2 0 0
8.3 0 0
8.4 0 0
8.5 0 0
8.6 0 0
8.7 0 0
8.8 0 0
8.9 0 0
9 0 0
9.1 0 0
9.2 0 0
9.3 0 0
9.4 0 0
9.5 0 0
9.6 0 0
9.7 0 0
9.8 0 0
9.9 0 0
10 0 0
10.1 0 0
10.2 0 0
10.3 0 0
10.4 0 0
10.5 0 0
10.6 0 0
10.7 0 0
10.8 0 0
10.9 0 0
11 0 0
11.1 0 0
11.2 0 0
11.3 0 0
11.4 0 0
11.5 0 0
11.6 0 0
11.7 0 0
11.8 0 0
11.9 0 0
12 0 0
12.1 0 0
12.2 0 0
12.3 0 0
12.4 0 0
12.5 0 0
12.6 0 0
12.7 0 0
12.8 0 0
12.9 0 0
13 0 0
13.1 0 0
13.2 0 0
13.3 0 0
13.4 0 0
13.5 0 0
13.6 0 0
13.7 0 0
13.8 0 0
13.9 0 0
14 0 0
14.1 0 0
14.2 0 0
14.3 0 0
14.4 0 0
14.5 0 0
14.6 0 0
14.7 0 0
14.8 0 0
14.9 0 0
15 0 0
15.1 0 0
15.2 0 0
15.3 0 0
15.4 0 0
15.5 0 0
15.6 0 0
15.7 0 0
15.8 0 0
15.9 0 0
16 0 0
16.1 0 0
16.2 0 0
16.3 0 0
16.4 0 0
16.5 0 0
16.6 0 0
16.7 0 0
16.8 0 0
16.9 0 0
17 0 0
17.1 0 0
17.2 0 0
17.3 0 0
17.4 0 0
17.5 0 0
17.6 0 0
17.7 0 0
17.8 0 0
17.9 0 0
18 0 0
18.1 0 0
18.2 0 0
18.3 0 0
18.4 0 0
18.5 0 0
18.6 0 0
18.7 0 0
18.8 0 0
18.9 0 0
19 0 0
19.1 0 0
19.2 0 0
19.3 0 0
19.4 0 0
19.5 0 0
19.6 0 0
19.7 0 0
19.8 0 0
19.9 0 0
20 0 0
20.1 0 0
20.2 0 0
20.3 0 0
20.4 0 0
20.5 0 0
20.6 0 0
20.7 0 0
20.8 0 0
20.9 0 0
21 0 0
21.1 0 0
21.2 0 0
21.3 0 0
21.4 0 0
21.5 0 0
21.6 0 0
21.7 0 0
21.8 0 0
21.9 0 0
22 0 0
22.1 0 0
22.2 0 0
22.3 0 0
22.4 0 0
22.5 0 0
22.6 0 0
22.7 0 0
22.8 0 0
22.9 0 0
23 0 0
23.1 0 0
23.2 0 0
23.3 0 0
23.4 0 0
23.5 0 0
23.6 0 0
23.7 0 0
23.8 0 0
23.9 0 0
24 0 0
24.1 0 0
24.2 0 0
24.3 0 0
24.4 0 0
24.5 0 0
24.6 0 0
24.7 0 0
24.8 0 0
24.9 0 0
25 0 0
25.1 0 0
25.2 0 0
25.3 0 0
25.4 0 0
25.5 0 0
25.6 0 0
25.7 0 0
25.8 0 0
25.9 0 0
26 0 0
26.1 0 0
26.2 0 0
26.3 0 0
26.4 0 0
26.5 0 0
26.6 0 0
26.7 0 0
26.8 0 0
26.9 0 0
27 0 0
27.1 0 0
27.2 0 0
27.3 0 0
27.4 0 0
27.5 0 0
27.6 0 0
27.7 0 0
27.8 0 0
27.9 0 0
28 0 0
28.1 0 0
28.2 0 0
28.3 0 0
28.4 0 0
28.5 0 0
28.6 0 0
28.7 0 0
28.8 0 0
28.9 0 0
29 0 0
29.1 0 0
29.2 0 0
29.3 0 0
29.4 0 0
29.5 0 0
29.6 0 0
29.7 0 0
29.8 0 0
29.9 0 0
30 0 0
30.1 0 0
30.2 0 0
30.3 0 0
30.4 0 0
30.5 0 0
30.6 0 0
30.7 0 0
30.8 0 0
30.9 0 0
31 0 0
31.1 0 0
31.2 0 0
31.3 0 0
31.4 0 0
31.5 0 0
31.6 0 0
31.7 0 0
31.8 0 0
31.9 0 0
32 0 0
32.1 0 0
32.2 0 0
32.3 0 0
32.4 0 0
32.5 0 0
32.6 0 0
32.7 0 0
32.8 0 0
32.9 0 0
33 0 0
33.1 0 0
33.2 0 0
33.3 0 0
33.4 0 0
33.5 0 0
33.6 0 0
33.7 0 0
33.8 0 0
33.9 0 0
34 0 0
34.1 0 0
34.2 0 0
34.3 0 0
34.4 0 0
34.5 0 0
34.6 0 0
34.7 0 0
34.8 0 0
34.9 0 0
35 0 0
35.1 0 0
35.2 0 0
35.3 0 0
35.4 0 0
35.5 0 0
35.6 0 0
35.7 0 0
35.8 0 0
35.9 0 0
36 0 0
36.1 0 0
36.2 0 0
36.3 0 0
36.4 0 0
36.5 0 0
36.6 0 0
36.7 0 0
36.8 0 0
36.9 0 0
37 0 0
37.1 0 0
37.2 0 0
37.3 0 0
37.4 0 0
37.5 0 0
37.6 0 0
37.7 0 0
37.8 0 0
37.9 0 0
38 0 0
38.1 0 0
38.2 0 0
38.3 0 0
38.4 0 0
38.5 0 0
38.6 0 0
38.7 0 0
38.8 0 0
38.9 0 0
39 0 0
39.1 0 0
39.2 0 0
39.3 0 0
39.4 0 0
39.5 0 0
39.6 0 0
39.7 0 0
39.8 0 0
39.9 0 0
40 0 0
40.1 0 0
40.2 0 0
40.3 0 0
40.4 0 0
40.5 0 0
40.6 0 0
40.7 0 0
40.8 0 0
40.9 0 0
41 0 0
41.1 0 0
41.2 0 0
41.3 0 0
41.4 0 0
41.5 0 0
41.6 0 0
41.7 0 0
41.8 0 0
41.9 0 0
42 0 0
42.1 0 0
42.2 0 0
42.3 0 0
42.4 0 0
42.5 0 0
42.6 0 0
42.7 0 0
42.8 0 0
42.9 0 0
43 0 0
43.1 0 0
43.2 0 0
43.3 0 0
43.4 0 0
43.5 0 0
43.6 0 0
43.7 0 0
43.8 0 0
43.9 0 0
44 0 0
44.1 0 0
44.2 0 0
44.3 0 0
44.4 0 0
44.5 0 0
44.6 0 0
44.7 0 0
44.8 0 0
44.9 0 0
45 0 0
45.1 0 0
45.2 0 0
45.3 0 0
45.4 0 0
45.5 0 0
45.6 0 0
45.7 0 0
45.8 0 0
45.9 0 0
46 0 0
46.1 0 0
46.2 0 0
46.3 0 0
46.4 0 0
46.5 0 0
46.6 0 0
46.7 0 0
46.8 0 0
46.9 0 0
47 0 0
47.1 0 0
47.2 0 0
47.3 0 0
47.4 0 0
47.5 0 0
47.6 0 0
47.7 0 0
47.8 0 0
47.9 0 0
48 0 0
48.1 0 0
48.2 0 0
48.3 0 0
48.4 0 0
48.5 0 0
48.6 0 0
48.7 0 0
48.8 0 0
48.9 0 0
49 0 0
49.1 0 0
49.2 0 0
49.3 0 0
49.4 0 0
49.5 0 0
49.6 0 0
49.7 0 0
49.8 0 0
49.9 0 0
50 0 0
50.1 0 0
50.2 0 0
50.3 0 0
50.4 0 0
50.5 0 0
50.6 0 0
50.7 0 0
50.8 0 0
50.9 0 0
51 0 0
51.1 0 0
51.2 0 0
51.3 0 0
51.4 0 0
51.5 0 0
51.6 0 0
51.7 0 0
51.8 0 0
51.9 0 0
52 0 0
52.1 0 0
52.2 0 0
52.3 0 0
52.4 0 0
52.5 0 0
52.6 0 0
52.7 0 0
52.8 0 0
52.9 0 0
53 0 0
53.1 0 0
53.2 0 0
53.3 0 0
53.4 0 0
53.5 0 0
53.6 0 0
53.7 0 0
53.8 0 0
53.9 0 0
54 0 0
54.1 0 0
54.2 0 0
54.3 0 0
54.4 0 0
54.5 0 0
54.6 0 0
54.7 0 0
54.8 0 0
54.9 0 0
55 0 0
55.1 0 0
55.2 0 0
55.3 0 0
55.4 0 0
55.5 0 0
55.6 0 0
55.7 0 0
55.8 0 0
55.9 0 0
56 0 0
56.1 0 0
56.2 0 0
56.3 0 0
56.4 0 0
56.5 0 0
56.6 0 0
56.7 0 0
56.8 0 0
56.9 0 0
57 0 0
57.1 0 0
57.2 0 0
57.3 0 0
57.4 0 0
57.5 0 0
57.6 0 0
57.7 0 0
57.8 0 0
57.9 0 0
58 0 0
58.1 0 0
58.2 0 0
58.3 0 0
58.4 0 0
58.5 0 0
58.6 0 0
58.7 0 0
58.8 0 0
58.9 0 0
59 0 0
59.1 0 0
59.2 0 0
59.3 0 0
59.4 0 0
59.5 0 0
59.6 0 0
59.7 0 0
59.8 0 0
59.9 0 0
60 0 0
60.1 0 0
60.2 0 0
60.3 0 0
60.4 0 0
60.5 0 0
60.6 0 0
60.7 0 0
60.8 0 0
60.9 0 0
61 0 0
61.1 0 0
61.2 0 0
61.3 0 0
61.4 0 0
61.5 0 0
61.6 0 0
61.7 0 0
61.8 0 0
61.9 0 0
62 0 0
62.1 0 0
62.2 0 0
62.3 0 0
62.4 0 0
62.5 0 0
62.6 0 0
62.7 0 0
62.8 0 0
62.9 0 0
63 0 0
63.1 0 0
63.2 0 0
63.3 0 0
63.4 0 0
63.5 0 0
63.6 0 0
63.7 0 0
63.8 0 0
63.9 0 0
64 0 0
64.1 0 0
64.2 0 0
64.3 0 0
64.4 0 0
64.5 0 0
64.6 0 0
64.7 0 0
64.8 0 0
64.9 0 0
65 0 0
65.1 0 0
65.2 0 0
65.3 0 0
65.4 0 0
65.5 0 0
65.6 0 0
65.7 0 0
65.8 0 0
65.9 0 0
66 0 0
66.1 0 0
66.2 0 0
66.3 0 0
66.4 0 0
66.5 0 0
66.6 0 0
66.7 0 0
66.8 0 0
66.9 0 0
67 0 0
67.1 0 0
67.2 0 0
67.3 0 0
67.4 0 0
67.5 0 0
67.6 0 0
67.7 0 0
67.8 0 0
67.9 0 0
68 0 0
68.1 0 0
68.2 0 0
68.3 0 0
68.4 0 0
68.5 0 0
68.6 0 0
68.7 0 0
68.8 0 0
68.9 0 0
69 0 0
69.1 0 0
69.2 0 0
69.3 0 0
69.4 0 0
69.5 0 0
69.6 0 0
69.7 0 0
69.8 0 0
69.9 0 0
70 0 0
70.1 0 0
70.2 0 0
70.3 0 0
70.4 0 0
70.5 0 0
70.6 0 0
70.7 0 0
70.8 0 0
70.9 0 0
71 0 0
71.1 0 0
71.2 0 0
71.3 0 0
71.4 0 0
71.5 0 0
71.6 0 0
71.7 0 0
71.8 0 0
71.9 0 0
72 0 0
72.1 0 0
72.2 0 0
72.3 0 0
72.4 0 0
72.5 0 0
72.6 0 0
72.7 0 0
72.8 0 0
72.9 0 0
73 0 0
73.1 0 0
73.2 0 0
73.3 0 0
73.4 0 0
73.5 0 0
73.6 0 0
73.7 0 0
73.8 0 0
73.9 0 0
74 0 0
74.1 0 0
74.2 0 0
74.3 0 0
74.4 0 0
74.5 0 0
74.6 0 0
74.7 0 0
74.8 0 0
74.9 0 0
75 0 0
75.1 0 0
75.2 0 0
75.3 0 0
75.4 0 0
75.5 0 0
75.6 0 0
75.7 0 0
75.8 0 0
75.9 0 0
76 0 0
76.1 0 0
76.2 0 0
76.3 0 0
76.4 0 0
76.5 0 0
76.6 0 0
76.7 0 0
76.8 0 0
76.9 0 0
77 0 0
77.1 0 0
77.2 0 0
77.3 0 0
77.4 0 0
77.5 0 0
77.6 0 0
77.7 0 0
77.8 0 0
77.9 0 0
78 0 0
78.1 0 0
78.2 0 0
78.3 0 0
78.4 0 0
78.5 0 0
78.6 0 0
78.7 0 0
78.8 0 0
78.9 0 0
79 0 0
79.1 0 0
79.2 0 0
79.3 0 0
79.4 0 0
79.5 0 0
79.6 0 0
79.7 0 0
79.8 0 0
79.9 0 0
80 0 0
80.1 0 0
80.2 0 0
80.3 0 0
80.4 0 0
80.5 0 0
80.6 0 0
80.7 0 0
80.8 0 0
80.9 0 0
81 0 0
81.1 0 0
81.2 0 0
81.3 0 0
81.4 0 0
81.5 0 0
81.6 0 0
81.7 0 0
81.8 0 0
81.9 0 0
82 0 0
82.1 0 0
82.2 0 0
82.3 0 0
82.4 0 0
82.5 0 0
82.6 0 0
82.7 0 0
82.8 0 0
82.9 0 0
83 0 0
83.1 0 0
83.2 0 0
83.3 0 0
83.4 0 0
83.5 0 0
83.6 0 0
83.7 0 0
83.8 0 0
83.9 0 0
84 0 0
84.1 0 0
84.2 0 0
84.3 0 0
84.4 0 0
84.5 0 0
84.6 0 0
84.7 0 0
84.8 0 0
84.9 0 0
85 0 0
85.1 0 0
85.2 0 0
85.3 0 0
85.4 0 0
85.5 0 0
85.6 0 0
85.7 0 0
85.8 0 0
85.9 0 0
86 0 0
86.1 0 0
86.2 0 0
86.3 0 0
86.4 0 0
86.5 0 0
86.6 0 0
86.7 0 0
86.8 0 0
86.9 0 0
87 0 0
87.1 0 0
87.2 0 0
87.3 0 0
87.4 0 0
87.5 0 0
87.6 0 0
87.7 0 0
87.8 0 0
87.9 0 0
88 0 0
88.1 0 0
88.2 0 0
88.3 0 0
88.4 0 0
88.5 0 0
88.6 0 0
88.7 0 0
88.8 0 0
88.9 0 0
89 0 0
89.1 0 0
89.2 0 0
89.3 0 0
89.4 0 0
89.5 0 0
89.6 0 0
89.7 0 0
89.8 0 0
89.9 0 0
90 0 0
90.1 0 0
90.2 0 0
90.3 0 0
90.4 0 0
90.5 0 0
90.6 0 0
90.7 0 0
90.8 0 0
90.9 0 0
91 0 0
91.1 0 0
91.2 0 0
91.3 0 0
91.4 0 0
91.5 0 0
91.6 0 0
91.7 0 0
91.8 0 0
91.9 0 0
92 0 0
92.1 0 0
92.2 0 0
92.3 0 0
92.4 0 0
92.5 0 0
92.6 0 0
92.7 0 0
92.8 0 0
92.9 0 0
93 0 0
93.1 0 0
93.2 0 0
93.3 0 0
93.4 0 0
93.5 0 0
93.6 0 0
93.7 0 0
93.8 0 0
93.9 0 0
94 0 0
94.1 0 0
94.2 0 0
94.3 0 0
94.4 0 0
94.5 0 0
94.6 0 0
94.7 0 0
94.8 0 0
94.9 0 0
95 0 0
95.1 0 0
95.2 0 0
95.3 0 0
95.4 0 0
95.5 0 0
95.6 0 0
95.7 0 0
95.8 0 0
95.9 0 0
96 0 0
96.1 0 0
96.2 0 0
96.3 0 0
96.4 0 0
96.5 0 0
96.6 0 0
96.7 0 0
96.8 0 0
96.9 0 0
97 0 0
97.1 0 0
97.2 0 0
97.3 0 0
97.4 0 0
97.5 0 0
97.6 0 0
97.7 0 0
97.8 0 0
97.9 0 0
98 0 0
98.1 0 0
98.2 0 0
98.3 0 0
98.4 0 0
98.5 0 0
98.6 0 0
98.7 0 0
98.8 0 0
98.9 0 0
99 0 0
99.1 0 0
99.2 0 0
99.3 0 0
99.4 0 0
99.5 0 0
99.6 0 0
99.7 0 0
99.8 0 0
99.9 0 0
100 0 0
100.1 0 0
100.2 0 0
100.3 0 0
100.4 0 0
100.5 0 0
100.6 0 0
100.7 0 0
100.8 0 0
100.9 0 0
101 0 0
101.1 0 0
101.2 0 0
101.3 0 0
101.4 0 0
101.5 0 0
101.6 0 0
101.7 0 0
101.8 0 0
101.9 0 0
102 0 0
102.1 0 0
102.2 0 0
102.3 0 0
102.4 0 0
102.5 0 0
102.6 0 0
102.7 0 0
102.8 0 0
102.9 0 0
103 0 0
103.1 0 0
103.2 0 0
103.3 0 0
103.4 0 0
103.5 0 0
103.6 0 0
103.7 0 0
103.8 0 0
103.9 0 0
104 0 0
104.1 0 0
104.2 0 0
104.3 0 0
104.4 0 0
104.5 0 0
104.6 0 0
104.7 0 0
104.8 0 0
104.9 0 0
105 0 0
105.1 0 0
105.2 0 0
105.3 0 0
105.4 0 0
105.5 0 0
105.6 0 0
105.7 0 0
105.8 0 0
105.9 0 0
106 0 0
106.1 0 0
106.2 0 0
106.3 0 0
106.4 0 0
106.5 0 0
106.6 0 0
106.7 0 0
106.8 0 0
106.9 0 0
107 0 0
107.1 0 0
107.2 0 0
107.3 0 0
107.4 0 0
107.5 0 0
107.6 0 0
107.7 0 0
107.8 0 0
107.9 0 0
108 0 0
108.1 0 0
108.2 0 0
108.3 0 0
108.4 0 0
108.5 0 0
108.6 0 0
108.7 0 0
108.8 0 0
108.9 0 0
109 0 0
109.1 0 0
109.2 0 0
109.3 0 0
109.4 0 0
109.5 0 0
109.6 0 0
109.7 0 0
109.8 0 0
109.9 0 0
110 0 0
110.1 0 0
110.2 0 0
110.3 0 0
110.4 0 0
110.5 0 0
110.6 0 0
110.7 0 0
110.8 0 0
110.9 0 0
111 0 0
111.1 0 0
111.2 0 0
111.3 0 0
111.4 0 0
111.5 0 0
111.6 0 0
111.7 0 0
111.8 0 0
111.9 0 0
112 0 0
[...]
POINT_DATA 83304

SCALARS pressure float 1
LOOKUP_TABLE default
0
0
0
0
0
0
0
0
0
0
0
0
0
0
0
0
0
0
0
0
0
0
0
0
0
0
0
0
0
0
0
0
0
0
0
0
0
0
0
0
0
0
0
0
0
0
0
0
0
0
0
0
0
0
0
0
0
0
0
0
0
0
0
0
0
0
0
0
0
0
0
0
0
0
0
0
0
0
0
0
0
0
0
0
0
0
0
0
0
0
0
0
0
0
0
0
0
0
0
0
0
0
0
0
0
0
0
0
0
0
0
0
0
0
0
0
0
0
0
0
0
0
0
0
0
0
0
0
0
0
0
0
0
0
0
0
0
0
0
0
0
0
0
0
0
0
0
0
0
0
0
0
0
0
0
0
0
0
0
0
0
0
0
0
0
0
0
0
0
0
0
0
0
0
0
0
0
0
0
0
0
0
0
0
0
0
0
0
0
0
0
0
0
0
0
0
0
0
0
0
0
0
0
0
0
0
0
0
0
0
0
0
0
0
0
0
0
0
0
0
0
0
0
0
0
0
0
0
0
0
0
0
0
0
0
0
0
0
0
0
0
0
0
0
0
0
0
0
0
0
0
0
0
0
0
0
0
0
0
0
0
0
0
0
0
0
0
0
0
0
0
0
0
0
0
0
0
0
0
0
0
0
0
0
0
0
0
0
0
0
0
0
0
0
0
0
0
0
0
0
0
0
0
0
0
0
0
0
0
0
0
0
0
0
0
0
0
0
0
0
0
0
0
0
0
0
0
0
0
0
0
0
0
0
0
0
0
0
0
0
0
0
0
0
0
0
0
0
0
0
0
0
0
0
0
0
0
0
0
0
0
0
0
0
0
0
0
0
0
0
0
0
0
0
0
0
0
0
0
0
0
0
0
0
0
0
0
0
0
0
0
0
0
0
0
0
0
0
0
0
0
0
0
0
0
0
0
0
0
0
0
0
0
0
0
0
0
0
0
0
0
0
0
0
0
0
0
0
0
0
0
0
0
0
0
0
0
0
0
0
0
0
0
0
0
0
0
0
0
0
0
0
0
0
0
0
0
0
0
0
0
0
0
0
0
0
0
0
0
0
0
0
0
0
0
0
0
0
0
0
0
0
0
0
0
0
0
0
0
0
0
0
0
0
0
0
0
0
0
0
0
0
0
0
0
0
0
0
0
0
0
0
0
0
0
0
0
0
0
0
0
0
0
0
0
0
0
0
0
0
0
0
0
0
0
0
0
0
0
0
0
0
0
0
0
0
0
0
0
0
0
0
0
0
0
0
0
0
0
0
0
0
0
0
0
0
0
0
0
0
0
0
0
0
0
0
0
0
0
0
0
0
0
0
0
0
0
0
0
0
0
0
0
0
0
0
0
0
0
0
0
0
0
0
0
0
0
0
0
0
0
0
0
0
0
0
0
0
0
0
0
0
0
0
0
0
0
0
0
0
0
0
0
0
0
0
0
0
0
0
0
0
0
0
0
0
0
0
0
0
0
0
0
0
0
0
0
0
0
0
0
0
0
0
0
0
0
0
0
0
0
0
0
0
0
0
0
0
0
0
0
0
0
0
0
0
0
0
0
0
0
0
0
0
0
0
0
0
0
0
0
0
0
0
0
0
0
0
0
0
0
0
0
0
0
0
0
0
0
0
0
0
0
0
0
0
0
0
0
0
0
0
0
0
0
0
0
0
0
0
0
0
0
0
0
0
0
0
0
0
0
0
0
0
0
0
0
0
0
0
0
0
0
0
0
0
0
0
0
0
0
0
0
0
0
0
0
0
0
0
0
0
0
0
0
0
0
0
0
0
0
0
0
0
0
0
0
0
0
0
0
0
0
0
0
0
0
0
0
0
0
0
0
0
0
0
0
0
0
0
0
0
0
0
0
0
0
0
0
0
0
0
0
0
0
0
0
0
0
0
0
0
0
0
0
0
0
0
0
0
0
0
0
0
0
0
0
0
0
0
0
0
0
0
0
0
0
0
0
0
0
0
0
0
0
0
0
0
0
0
0
0
0
0
0
0
0
0
0
0
0
0
0
0
0
0
0
0
0
0
0
0
0
0
0
0
0
0
0
0
0
0
0
0
0
0
0
0
0
0
0
0
0
0
0
0
0
0
0
0
0
0
0
0
0
0
0
0
0
0
0
0
0
0
0
0
0
0
0
0
0
0
0
0
0
0
0
0
0
0
0
0
0
0
0
0
0
0
0
0
0
0
0
0
0
0
0
0
0
0
0
0
0
0
0
0
0
0
0
0
0
0
0
0
0
0
0
0
0
0
0
0
0
0
0
0
0
0
0
0
0
0
0
0
0
0
0
0
0
0
0
0
0
0
0
0
0
0
0
0
0
0
0
0
0
0
0
0
0
0
0
0
0
0
0
0
0
0
0
0
0
0
0
0
0
0
0
0
0
0
0
0
0
0
0
0
0
0
0
0
0
0
0
0
0
0
0
0
0
0
0
0
0
0
0
0
0
0
0
0
0
0
0
0
0
0
0
0
0
0
0
0
0
0
0
0
0
0
0
0
0
0
0
0
0
0
0
0
0
0
0
0
0
0
0
0
0
0
0
0
0
0
0
0
0
0
0
0
0
0
0
0
0
0
0
0
0
0
0
0
0
0
0
0
0
0
0
0
0
0
0
0
0
0
0
0
0
0
0
0
0
0
0
0
0
0
0
0
0
0
0
0
0
0
0
0
0
0
0
0
0
0
0
0
0
0
0
0
0
0
0
0
0
0
0
0
0
0
0
0
0
0
0
0
0
0
0
0
0
0
0
0
0
0
0
0
0
0
0
0
0
0
0
0
0
0
0
0
0
0
0
0
0
0
0
0
0
0
0
0
0
0
0
0
0
0
0
0
0
0
0
0
0
0
0
0
0
0
0
0
0
0
0
0
0
0
0
0
0
0
0
0
0
0
0
0
0
0
0
0
0
0
0
0
0
0
0
0
0
0
0
0
0
0
0
0
0
0
0
0
0
0
0
0
0
0
0
0
0
0
0
0
0
0
0
0
0
0
0
0
0
0
0
0
0
0
0
0
0
0
0
0
0
0
0
0
0
0
0
0
0
0
0
0
0
0
0
0
0
0
0
0
0
0
0
0
0
0
0
0
0
0
0
0
0
0
0
0
0
0
0
0
0
0
0
0
0
0
0
0
0
0
0
0
0
0
0
0
0
0
0
0
0
0
0
0
0
0
0
0
0
0
0
0
0
0
0
0
0
0
0
0
0
0
0
0
0
0
0
0
0
0
0
0
0
0
0
0
0
0
0
0
0
0
0
0
0
0
0
0
0
0
0
0
0
0
0
0
0
0
0
0
0
0
0
0
0
0
0
0
0
0
0
0
0
0
0
0
0
0
0
0
0
0
0
0
0
0
0
0
0
0
0
0
0
0
0
0
0
0
0
0
0
0
0
0
0
0
0
0
0
0
0
0
0
0
0
0
0
0
0
0
0
0
0
0
0
0
0
0
0
0
0
0
0
0
0
0
0
0
0
0
0
0
0
0
0
0
0
0
0
0
0
0
0
0
0
0
0
0
0
0
0
0
0
0
0
0
0
0
0
0
0
0
0
0
0
0
0
0
0
0
0
0
0
0
0
0
0
0
0
0
0
0
0
0
0
0
0
0
0
0
0
0.0883692
0.0659711
0.0666526
0.0718241
0.0838983
0.0954073
0.108289
0.124326
0.138906
0.152636
0.166589
0.174527
0.17749
0.181513
0.181657
0.174501
0.167264
0.160311
0.145722
0.125273
0.109566
0.100288
0.087165
0.0630538
0.034353
0.0127317
0.00376791
0.00580554
0.0139029
0.0228702
0.0287717
0.0297833
0.0263872
0.0205467
0.0143631
0.00917473
0.00543247
0.00301516
0.00158209
0.000789894
0.000377125
0.000172853
7.62981e-05
3.25181e-05
1.3411e-05
5.3622e-06
2.08196e-06
7.86087e-07
2.88992e-07
1.03563e-07
3.62124e-08
1.23662e-08
4.12759e-09
1.34757e-09
4.30617e-10
1.34766e-10
4.13293e-11
1.24264e-11
3.66478e-12
1.0606e-12
3.01322e-13
8.40716e-14
2.3044e-14
6.20722e-15
1.64362e-15
4.27955e-16
1.09598e-16
2.76141e-17
6.84683e-18
1.67101e-18
4.01515e-19
9.50053e-20
2.21416e-20
5.08361e-21
1.15006e-21
2.56413e-22
5.63511e-23
1.22092e-23
2.60837e-24
5.49564e-25
1.1421e-25
2.34152e-26
4.73654e-27
9.455e-28
1.86277e-28
3.62259e-29
6.95502e-30
1.31843e-30
2.46802e-31
4.56281e-32
8.33224e-33
1.50311e-33
2.67898e-34
4.71792e-35
8.21075e-36
1.41226e-36
2.40103e-37
4.03527e-38
6.70485e-39
1.10151e-39
1.78946e-40
2.8749e-41
4.56814e-42
7.17978e-43
1.11629e-43
1.71704e-44
2.6131e-45
3.93499e-46
5.86381e-47
8.64773e-48
1.26225e-48
1.82367e-49
2.60817e-50
3.69276e-51
5.17634e-52
7.18432e-53
9.87348e-54
1.34372e-54
1.81105e-55
2.41749e-56
3.19628e-57
4.18597e-58
5.4306e-59
6.97958e-60
8.88724e-61
1.12121e-61
1.40158e-62
1.73614e-63
2.13113e-64
2.59253e-65
3.1257e-66
3.73514e-67
4.42409e-68
5.19426e-69
6.04544e-70
6.97525e-71
7.97886e-72
9.04885e-73
1.01751e-73
1.13448e-74
1.25427e-75
1.37511e-76
1.49507e-77
1.61204e-78
1.72388e-79
1.82839e-80
1.92345e-81
2.00707e-82
2.07746e-83
2.13308e-84
2.17272e-85
2.19553e-86
2.20106e-87
2.18927e-88
2.16049e-89
2.1155e-90
2.05539e-91
1.98158e-92
1.89574e-93
1.79976e-94
1.69563e-95
1.58542e-96
1.47119e-97
1.35492e-98
1.23851e-99
1.12366e-100
1.0119e-101
9.04514e-103
8.02574e-104
7.069e-105
6.18084e-106
5.36494e-107
4.62298e-108
3.95487e-109
3.35897e-110
2.8324e-111
2.37132e-112
1.97116e-113
1.62691e-114
1.33329e-115
1.08497e-116
8.76693e-118
7.03443e-119
5.60494e-120
4.43489e-121
3.48477e-122
2.71929e-123
2.10735e-124
1.6219e-125
1.23974e-126
9.41154e-128
7.0962e-129
5.31416e-130
3.95271e-131
2.92021e-132
2.1429e-133
1.56194e-134
1.13087e-135
8.133e-137
5.81015e-138
4.12317e-139
2.90661e-140
2.03547e-141
1.41602e-142
9.78604e-144
6.71872e-145
4.58261e-146
3.10523e-147
2.09043e-148
1.39811e-149
9.29014e-151
6.1331e-152
4.02274e-153
2.62153e-154
1.69739e-155
1.09197e-156
6.97979e-158
4.43289e-159
2.79736e-160
1.754e-161
1.09279e-162
6.76513e-164
4.1615e-165
2.54368e-166
1.54497e-167
9.3245e-169
5.59221e-170
3.33271e-171
1.97365e-172
1.16147e-173
6.79227e-175
3.94722e-176
2.27952e-177
1.30819e-178
7.46075e-180
4.22841e-181
2.38154e-182
1.333e-183
7.41474e-185
4.0988e-186
2.25172e-187
1.22935e-188
6.67017e-190
3.59671e-191
1.92744e-192
1.02651e-193
5.43326e-195
2.85805e-196
1.49415e-197
7.7631e-199
4.00862e-200
2.05718e-201
1.04923e-202
5.31856e-204
2.67941e-205
1.34155e-206
6.67577e-208
3.30157e-209
1.62281e-210
7.92757e-212
3.84894e-213
1.85725e-214
8.90691e-216
4.24534e-217
2.01107e-218
9.46824e-220
4.43037e-221
2.06034e-222
9.5228e-224
4.3744e-225
1.99709e-226
9.06159e-228
4.08635e-229
1.83143e-230
8.15773e-232
3.61136e-233
1.58888e-234
6.94758e-236
3.01921e-237
1.30398e-238
5.59707e-240
2.38762e-241
1.01223e-242
4.26487e-244
1.78582e-245
7.43149e-247
3.07338e-248
1.26316e-249
5.15935e-251
2.09425e-252
8.44801e-254
3.38665e-255
1.34919e-256
5.34142e-258
2.10146e-259
8.21605e-261
3.19211e-262
1.23243e-263
4.72839e-265
1.80271e-266
6.8296e-268
2.5711e-269
9.61819e-271
3.5753e-272
1.3206e-273
4.84695e-275
1.76765e-276
6.40545e-278
2.30635e-279
8.25121e-281
2.93306e-282
1.03593e-283
3.63528e-285
1.26748e-286
4.39069e-288
1.51115e-289
5.16724e-291
1.75541e-292
5.92468e-294
1.98658e-295
6.61758e-297
2.18996e-298
7.1996e-300
2.35131e-301
7.62842e-303
2.45852e-304
7.87081e-306
2.50302e-307
7.9068e-309
2.48096e-310
7.73239e-312
2.39372e-313
7.36023e-315
2.2478e-316
6.81811e-318
2.05398e-319
6.14618e-321
1.82804e-322
4.94066e-324
0
0
0
0
0
0
0
0
0
0
0
0
0
0
0
0
0
0
0
0
0
0
0
0
0
0
0
0
0
0
0
0
0
0
0
0
0
0
0
0
0
0
0
0
0
0
0
0
0
0
0
0
0
0
0
0
0
0
0
0
0
0
0
0
0
0
0
0
0
0
0
0
0
0
0
0
0
0
0
0
0
0
0
0
0
0
0
0
0
0
0
0
0
0
0
0
0
0
0
0
0
0
0
0
0
0
0
0
0
0
0
0
0
0
0
0
0
0
0
0
0
0
0
0
0
0
0
0
0
0
0
0
0
0
0
0
0
0
0
0
0
0
0
0
0
0
0
0
0
0
0
0
0
0
0
0
0
0
0
0
0
0
0
0
0
0
0
0
0
0
0
0
0
0
0
0
0
0
0
0
0
0
0
0
0
0
0
0
0
0
0
0
0
0
0
0
0
0
0
0
0
0
0
0
0
0
0
0
0
0
0
0
0
0
0
0
0
0
0
0
0
0
0
0
0
0
0
0
0
0
0
0
0
0
0
0
0
0
0
0
0
0
0
0
0
0
0
0
0
0
0
0
0
0
0
0
0
0
0
0
0
0
0
0
0
0
0
0
0
0
0
0
0
0
0
0
0
0
0
0
0
0
0
0
0
0
0
0
0
0
0
0
0
0
0
0
0
0
0
0
0
0
0
0
0
0
0
0
0
0
0
0
0
0
0
0
0
0
0
0
0
0
0
0
0
0
0
0
0
0
0
0
0
0
0
0
0
0
0
0
0
0
0
0
0
0
0
0
0
0
0
0
0
0
0
0
0
0
0
0
0
0
0
0
0
0
0
0
0
0
0
0
0
0
0
0
0
0
0
0
0
0
0
0
0
0
0
0
0
0
0
0
0
0
0
0
0
0
0
0
0
0
0
0
0
0
0
0
0
0
0
0
0
0
0
0
0
0
0
0
0
0
0
0
0
0
0
0
0
0
0
0
0
0
0
0
0
0
0
0
0
0
0
0
0
0
0
0
0
0
0
0
0
0
0
0
0
0
0
0
0
0
0
0
0
0
0
0
0
0
0
0
0
0
0
0
0
0
0
0
0
0
0
0
0
0
0
0
0
0
0
0
0
0
0
0
0
0
0
0
0
0
0
0
0
0
0
0
0
0
0
0
0
0
0
0
0
0
0
0
0
0
0
0
0
0
0
0
0
0
0
0
0
0
0
0
0
0
0
0
0
0
0
0
0
0
0
0
0
0
0
0
0
0
0
0
0
0
0
0
0
0
0
0
0
0
0
0
0
0
0
0
0
0
0
0
0
0
0
0
0
0
0
0
0
0
0
0
0
0
0
0
0
0
0
0
0
0
0
0
0
0
0
0
0
0
0
0
0
0
0
0
0
0
0
0
0
0
0
0
0
0
0
0
0
0
0
0
0
0
0
0
0
0
0
0
0
0
0
0
0
0
0
0
0
0
0
0
0
0
0
0
0
0
0
0
0
0
0
0
0
0
0
0
0
0
0
0
0
0
0
0
0
0
0
0
0
0
0
0
0
0
0
0
0
0
0
0
0
0
0
0
0
0
0
0
0
0
0
0
0
0
0
0
0
0
0
0
0
0
0
0
0
0
0
0
0
0
0
0
0
0
0
0
0
0
0
0
0
0
0
0
0
0
0
0
0
0
0
0
0
0
0
0
0
0
0
0
0
0
0
0
0
0
0
0
0
0
0
0
0
0
0
0
0
0
0
0
0
0
0
0
0
0
0
0
0
0
0
0
0
0
0
0
0
0
0
0
0
0
0
0
0
0
0
0
0
0
0
0
0
0
0
0
0
0
0
0
0
0
0
0
0
0
0
0
0
0
0
0
0
0
0
0
0
0
0
0
0
0
0
0
0
0
0
0
0
0
0
0
0
0
0
0
0
0
0
0
0
0
0
0
0
0
0
0
0
0
0
0
0
0
0
0
0
0
0
0
0
0
0
0
0
0
0
0
0
0
0
0
0
0
0
0
0
0
0
0
0
0
0
0
0
0
0
0
0
0
0
0
0
0
0
0
0
0
0
0
0
0
0
0
0
0
0
0
0
0
0
0
0
0
0
0
0
0
0
0
0
0
0
0
0
0
0
0
0
0
0
0
0
0
0
0
0
0
0
0
0
0
0
0
0
0
0
0
0
0
0
0
0
0
0
0
0
0
0
0
0
0
0
0
0
0
0
0
0
0
0
0
0
0
0
0
0
0
0
0
0
0
0
0
0
0
0
0
0
0
0
0
0
0
0
0
0
0
0
0
0
0
0
0
0
0
0
0
0
0
0
0
0
0
0
0
0
0
0
0
0
0
0
0
0
0
0
0
0
0
0
0
0
0
0
0
0
0
0
0
0
0
0
0
0
0
0
0
0
0
0
0
0
0
0
0
0
0
0
0
0
0
0
0
0
0
0
0
0
0
0
0
0
0
0
0
0
0
0
0
0
0
0
0
0
0
0
0
0
0
0
0
0
0
0
0
0
0
0
0
0
0
0
0
0
0
0
0
0
0
0
0
0
0
0
0
0
0
0
0
0
0
0
0
0
0
0
0
0
0
0
0
0
0
0
0
0
0
0
0
0
0
0
0
0
0
0
0
0
0
0
0
0
0
0
0
0
0
0
0
0
0
0
0
0
0
0
0
0
0
0
0
0
0
0
0
0
0
0
0
0
0
0
0
0
0
0
0
0
0
0
0
0
0
0
0
0
0
0
0
0
0
0
0
0
0
0
0
0
0
0
0
0
0
0
0
0
0
0
0
0
0
0
0
0
0
0
0
0
0
0
0
0
0
0
0
0
0
0
0
0
0
0
0
0
0
0
0
0
0
0
0
0
0
0
0.0767136
0.0473795
0.0501061
0.0535742
0.0631678
0.0716715
0.0793764
0.0889567
0.0970836
0.104112
0.111971
0.115743
0.115799
0.117816
0.118322
0.113
0.107572
0.105351
0.0993328
0.0863816
0.0754488
0.0728827
0.0708678
0.0579098
0.0349663
0.013044
0.000405058
-0.00183615
0.00320459
0.0112594
0.0184006
0.0220037
0.0214436
0.0178788
0.0131542
0.00873989
0.00533817
0.00303823
0.00162787
0.000827382
0.000401222
0.000186462
8.33396e-05
3.59263e-05
1.4973e-05
6.04525e-06
2.36857e-06
9.01949e-07
3.34256e-07
1.20695e-07
4.25076e-08
1.46158e-08
4.91043e-09
1.61322e-09
5.18609e-10
1.63243e-10
5.03418e-11
1.52177e-11
4.51132e-12
1.31217e-12
3.74615e-13
1.05016e-13
2.89175e-14
7.82425e-15
2.08084e-15
5.44098e-16
1.3992e-16
3.53966e-17
8.81114e-18
2.15872e-18
5.2066e-19
1.23652e-19
2.8922e-20
6.66386e-21
1.51279e-21
3.38428e-22
7.46227e-23
1.62207e-23
3.47647e-24
7.34762e-25
1.53168e-25
3.1497e-26
6.39027e-27
1.27933e-27
2.52767e-28
4.92942e-29
9.49012e-30
1.80387e-30
3.38573e-31
6.27585e-32
1.149e-32
2.078e-33
3.71283e-34
6.55465e-35
1.14348e-35
1.97147e-36
3.35958e-37
5.65923e-38
9.42445e-39
1.55176e-39
2.52643e-40
4.06769e-41
6.47722e-42
1.02017e-42
1.58941e-43
2.44975e-44
3.73568e-45
5.6366e-46
8.41593e-47
1.24354e-47
1.81856e-48
2.63233e-49
3.77167e-50
5.34984e-51
7.51268e-52
1.04455e-52
1.43805e-53
1.96048e-54
2.64683e-55
3.53912e-56
4.68702e-57
6.14841e-58
7.98952e-59
1.02849e-59
1.31167e-60
1.6574e-61
2.07505e-62
2.5743e-63
3.16478e-64
3.85573e-65
4.65556e-66
5.57141e-67
6.60862e-68
7.77017e-69
9.05626e-70
1.04638e-70
1.19859e-71
1.36118e-72
1.53267e-73
1.71116e-74
1.89434e-75
2.07958e-76
2.26392e-77
2.4442e-78
2.61709e-79
2.77925e-80
2.9274e-81
3.05844e-82
3.16957e-83
3.25838e-84
3.32292e-85
3.3618e-86
3.37424e-87
3.36007e-88
3.31974e-89
3.25433e-90
3.16545e-91
3.05521e-92
2.92613e-93
2.78105e-94
2.62302e-95
2.4552e-96
2.28075e-97
2.10275e-98
1.92412e-99
1.74753e-100
1.57535e-101
1.40963e-102
1.25204e-103
1.10391e-104
9.66187e-106
8.39485e-107
7.24106e-108
6.20068e-109
5.27154e-110
4.44947e-111
3.72874e-112
3.10249e-113
2.56309e-114
2.10249e-115
1.7125e-116
1.38505e-117
1.11236e-118
8.87129e-120
7.02577e-121
5.52558e-122
4.31568e-123
3.34747e-124
2.57863e-125
1.97277e-126
1.49895e-127
1.13117e-128
8.47837e-130
6.31168e-131
4.66697e-132
3.4276e-133
2.50046e-134
1.81188e-135
1.30416e-136
9.3245e-138
6.62256e-139
4.67237e-140
3.27467e-141
2.27993e-142
1.57692e-143
1.08352e-144
7.39621e-146
5.01572e-147
3.37922e-148
2.26185e-149
1.50412e-150
9.93748e-152
6.52309e-153
4.2542e-154
2.75662e-155
1.77474e-156
1.13526e-157
7.21553e-159
4.55674e-160
2.85931e-161
1.78275e-162
1.10446e-163
6.79898e-165
4.15887e-166
2.52784e-167
1.52676e-168
9.1631e-170
5.46474e-171
3.23859e-172
1.90723e-173
1.11614e-174
6.49089e-176
3.75113e-177
2.15426e-178
1.22946e-179
6.97287e-181
3.93004e-182
2.20125e-183
1.22528e-184
6.77792e-186
3.7261e-187
2.03569e-188
1.10528e-189
5.96396e-191
3.1982e-192
1.70445e-193
9.02764e-195
4.752e-196
2.48595e-197
1.29248e-198
6.67842e-200
3.42959e-201
1.75037e-202
8.87851e-204
4.47582e-205
2.24248e-206
1.11663e-207
5.52603e-209
2.71797e-210
1.32862e-211
6.45486e-213
3.11673e-214
1.49568e-215
7.13357e-217
3.38145e-218
1.59304e-219
7.45895e-221
3.47101e-222
1.60532e-223
7.37897e-225
3.37097e-226
1.53052e-227
6.90636e-229
3.09729e-230
1.38051e-231
6.11529e-233
2.69225e-234
1.17797e-235
5.12236e-237
2.21372e-238
9.508e-240
4.05854e-241
1.72171e-242
7.25874e-244
3.04137e-245
1.26643e-246
5.24079e-248
2.15532e-249
8.80897e-251
3.57794e-252
1.44422e-253
5.79326e-255
2.3094e-256
9.14867e-258
3.60161e-259
1.40901e-260
5.47774e-262
2.11622e-263
8.12428e-265
3.09935e-266
1.17494e-267
4.42603e-269
1.65677e-270
6.16248e-272
2.27767e-273
8.3649e-275
3.05255e-276
1.10686e-277
3.98789e-279
1.42761e-280
5.07795e-282
1.79462e-283
6.3017e-285
2.19855e-286
7.62088e-288
2.62456e-289
8.98015e-291
3.05268e-292
1.03096e-293
3.4591e-295
1.15301e-296
3.81811e-298
1.25603e-299
4.10469e-301
1.33255e-302
4.29737e-304
1.37666e-305
4.3808e-307
1.38475e-308
4.34781e-310
1.35596e-311
4.20037e-313
1.29237e-314
3.94945e-316
1.19874e-317
3.6136e-319
1.082e-320
3.21143e-322
9.88131e-324
0
0
0
0
0
0
0
0
0
0
0
0
0
0
0
0
0
0
0
0
0
0
0
0
0
0
0
0
0
0
0
0
0
0
0
0
0
0
0
0
0
0
0
0
0
0
0
0
0
0
0
0
0
0
0
0
0
0
0
0
0
0
0
0
0
0
0
0
0
0
0
0
0
0
0
0
0
0
0
0
0
0
0
0
0
0
0
0
0
0
0
0
0
0
0
0
0
0
0
0
0
0
0
0
0
0
0
0
0
0
0
0
0
0
0
0
0
0
0
0
0
0
0
0
0
0
0
0
0
0
0
0
0
0
0
0
0
0
0
0
0
0
0
0
0
0
0
0
0
0
0
0
0
0
0
0
0
0
0
0
0
0
0
0
0
0
0
0
0
0
0
0
0
0
0
0
0
0
0
0
0
0
0
0
0
0
0
0
0
0
0
0
0
0
0
0
0
0
0
0
0
0
0
0
0
0
0
0
0
0
0
0
0
0
0
0
0
0
0
0
0
0
0
0
0
0
0
0
0
0
0
0
0
0
0
0
0
0
0
0
0
0
0
0
0
0
0
0
0
0
0
0
0
0
0
0
0
0
0
0
0
0
0
0
0
0
0
0
0
0
0
0
0
0
0
0
0
0
0
0
0
0
0
0
0
0
0
0
0
0
0
0
0
0
0
0
0
0
0
0
0
0
0
0
0
0
0
0
0
0
0
0
0
0
0
0
0
0
0
0
0
0
0
0
0
0
0
0
0
0
0
0
0
0
0
0
0
0
0
0
0
0
0
0
0
0
0
0
0
0
0
0
0
0
0
0
0
0
0
0
0
0
0
0
0
0
0
0
0
0
0
0
0
0
0
0
0
0
0
0
0
0
0
0
0
0
0
0
0
0
0
0
0
0
0
0
0
0
0
0
0
0
0
0
0
0
0
0
0
0
0
0
0
0
0
0
0
0
0
0
0
0
0
0
0
0
0
0
0
0
0
0
0
0
0
0
0
0
0
0
0
0
0
0
0
0
0
0
0
0
0
0
0
0
0
0
0
0
0
0
0
0
0
0
0
0
0
0
0
0
0
0
0
0
0
0
0
0
0
0
0
0
0
0
0
0
0
0
0
0
0
0
0
0
0
0
0
0
0
0
0
0
0
0
0
0
0
0
0
0
0
0
0
0
0
0
0
0
0
0
0
0
0
0
0
0
0
0
0
0
0
0
0
0
0
0
0
0
0
0
0
0
0
0
0
0
0
0
0
0
0
0
0
0
0
0
0
0
0
0
0
0
0
0
0
0
0
0
0
0
0
0
0
0
0
0
0
0
0
0
0
0
0
0
0
0
0
0
0
0
0
0
0
0
0
0
0
0
0
0
0
0
0
0
0
0
0
0
0
0
0
0
0
0
0
0
0
0
0
0
0
0
0
0
0
0
0
0
0
0
0
0
0
0
0
0
0
0
0
0
0
0
0
0
0
0
0
0
0
0
0
0
0
0
0
0
0
0
0
0
0
0
0
0
0
0
0
0
0
0
0
0
0
0
0
0
0
0
0
0
0
0
0
0
0
0
0
0
0
0
0
0
0
0
0
0
0
0
0
0
0
0
0
0
0
0
0
0
0
0
0
0
0
0
0
0
0
0
0
0
0
0
0
0
0
0
0
0
0
0
0
0
0
0
0
0
0
0
0
0
0
0
0
0
0
0
0
0
0
0
0
0
0
0
0
0
0
0
0
0
0
0
0
0
0
0
0
0
0
0
0
0
0
0
0
0
0
0
0
0
0
0
0
0
0
0
0
0
0
0
0
0
0
0
0
0
0
0
0
0
0
0
0
0
0
0
0
0
0
0
0
0
0
0
0
0
0
0
0
0
0
0
0
0
0
0
0
0
0
0
0
0
0
0
0
0
0
0
0
0
0
0
0
0
0
0
0
0
0
0
0
0
0
0
0
0
0
0
0
0
0
0
0
0
0
0
0
0
0
0
0
0
0
0
0
0
0
0
0
0
0
0
0
0
0
0
0
0
0
0
0
0
0
0
0
0
0
0
0
0
0
0
0
0
0
0
0
0
0
0
0
0
0
0
0
0
0
0
0
0
0
0
0
0
0
0
0
0
0
0
0
0
0
0
0
0
0
0
0
0
0
0
0
0
0
0
0
0
0
0
0
0
0
0
0
0
0
0
0
0
0
0
0
0
0
0
0
0
0
0
0
0
0
0
0
0
0
0
0
0
0
0
0
0
0
0
0
0
0
0
0
0
0
0
0
0
0
0
0
0
0
0
0
0
0
0
0
0
0
0
0
0
0
0
0
0
0
0
0
0
0
0
0
0
0
0
0
0
0
0
0
0
0
0
0
0
0
0
0
0
0
0
0
0
0
0
0
0
0
0
0
0
0
0
0
0
0
0
0
0
0
0
0
0
0
0
0
0
0
0
0
0
0
0
0
0
0
0
0
0
0
0
0
0
0
0
0
0
0
0
0
0
0
0
0
0
0
0
0
0
0
0
0
0
0
0
0
0
0
0
0
0
0
0
0
0
0
0
0
0
0
0
0
0
0
0
0
0
0
0
0
0
0
0
0
0
0
0
0
0
0
0
0
0
0
0
0
0
0
0
0
0
0
0
0
0
0
0
0
0
0
0
0
0
0
0
0
0
0
0
0
0
0
0
0
0
0
0
0
0
0
0
0
0
0
0
0
0
0
0
0
0
0
0
0
0
0
0
0
0
0
0
0
0
0
0
0
0
0
0
0
0
0
0
0
0
0
0
0
0
0
0
0
0
0
0
0
0
0
0
0
0
0
0
0
0
0
0
0
0
0
0
0
0
0
0
0
0
0
0
0
0
0
0
0
0
0
0
0
0
0
0
0
0.0830312
0.0533946
0.0575689
0.0609209
0.0722595
0.0823661
0.0919669
0.105041
0.116758
0.127482
0.139755
0.146151
0.146946
0.150353
0.151297
0.143564
0.135711
0.13224
0.123127
0.104724
0.0894648
0.0858247
0.0839681
0.0694749
0.0427573
0.0160577
-0.000730473
-0.00530753
-0.000452822
0.00904657
0.0182335
0.023519
0.0238111
0.0203185
0.0151948
0.0102243
0.00631031
0.00362349
0.00195637
0.00100102
0.000488296
0.000228124
0.000102443
4.43508e-05
1.85564e-05
7.51901e-06
2.95581e-06
1.12906e-06
4.19632e-07
1.51935e-07
5.36474e-08
1.84908e-08
6.22662e-09
2.0501e-09
6.60435e-10
2.08302e-10
6.43604e-11
1.94912e-11
5.78847e-12
1.68652e-12
4.82285e-13
1.35416e-13
3.7346e-14
1.01199e-14
2.69528e-15
7.05756e-16
1.81741e-16
4.60378e-17
1.14749e-17
2.81491e-18
6.79765e-19
1.61632e-19
3.785e-20
8.73095e-21
1.98427e-21
4.4439e-22
9.80921e-23
2.13446e-23
4.57931e-24
9.68823e-25
2.02158e-25
4.16112e-26
8.45023e-27
1.69329e-27
3.34859e-28
6.53617e-29
1.25943e-29
2.39595e-30
4.5008e-31
8.3496e-32
1.52989e-32
2.76905e-33
4.9514e-34
8.74787e-35
1.52723e-35
2.63504e-36
4.4936e-37
7.57488e-38
1.26234e-38
2.0799e-39
3.38859e-40
5.45942e-41
8.69903e-42
1.37098e-42
2.13732e-43
3.2963e-44
5.02967e-45
7.59361e-46
1.13446e-46
1.67726e-47
2.45425e-48
3.55449e-49
5.09579e-50
7.23198e-51
1.01612e-51
1.41355e-52
1.94708e-53
2.65582e-54
3.58743e-55
4.79921e-56
6.35899e-57
8.34577e-58
1.08501e-58
1.39739e-59
1.78299e-60
2.25399e-61
2.82327e-62
3.50412e-63
4.30979e-64
5.25303e-65
6.34548e-66
7.59703e-67
9.01514e-68
1.06041e-68
1.23644e-69
1.42918e-70
1.63774e-71
1.86065e-72
2.09588e-73
2.34086e-74
2.59246e-75
2.84704e-76
3.10058e-77
3.34871e-78
3.5869e-79
3.81053e-80
4.01509e-81
4.19631e-82
4.35031e-83
4.47374e-84
4.56392e-85
4.61889e-86
4.63753e-87
4.61958e-88
4.56564e-89
4.47713e-90
4.35626e-91
4.20588e-92
4.02946e-93
3.83087e-94
3.6143e-95
3.38408e-96
3.14458e-97
2.90003e-98
2.65446e-99
2.41155e-100
2.17458e-101
1.94638e-102
1.72928e-103
1.52512e-104
1.33522e-105
1.16044e-106
1.00123e-107
8.57606e-109
7.29295e-110
6.15729e-111
5.16129e-112
4.29556e-113
3.54966e-114
2.91252e-115
2.37289e-116
1.91965e-117
1.5421e-118
1.23016e-119
9.74484e-121
7.66594e-122
5.98883e-123
4.64637e-124
3.58006e-125
2.73956e-126
2.08206e-127
1.57158e-128
1.17821e-129
8.77311e-131
6.48847e-132
4.76646e-133
3.47794e-134
2.52075e-135
1.81479e-136
1.29783e-137
9.21959e-139
6.50605e-140
4.56079e-141
3.17606e-142
2.19719e-143
1.51003e-144
1.03098e-145
6.993e-147
4.71233e-148
3.1548e-149
2.09835e-150
1.38663e-151
9.10384e-153
5.93849e-154
3.84876e-155
2.47836e-156
1.58566e-157
1.00802e-158
6.36704e-160
3.99601e-161
2.49195e-162
1.54412e-163
9.5073e-165
5.81661e-166
3.5361e-167
2.13612e-168
1.28227e-169
7.64865e-171
4.53367e-172
2.67041e-173
1.56304e-174
9.09145e-176
5.25496e-177
3.01843e-178
1.72295e-179
9.77345e-181
5.50945e-182
3.08644e-183
1.7183e-184
9.50679e-186
5.22716e-187
2.85626e-188
1.55107e-189
8.37081e-191
4.48963e-192
2.39311e-193
1.26772e-194
6.67419e-196
3.4921e-197
1.81589e-198
9.38448e-200
4.82002e-201
2.46041e-202
1.24821e-203
6.29346e-205
3.15366e-206
1.5706e-207
7.7739e-209
3.82418e-210
1.86967e-211
9.08486e-213
4.38731e-214
2.10575e-215
1.00448e-216
4.76217e-218
2.24386e-219
1.05078e-220
4.89057e-222
2.26221e-223
1.04e-224
4.75178e-226
2.15778e-227
9.73828e-229
4.36799e-230
1.94717e-231
8.62673e-233
3.79848e-234
1.66224e-235
7.22926e-237
3.12472e-238
1.34228e-239
5.73042e-241
2.43132e-242
1.02519e-243
4.29613e-245