# vtk DataFile Version 2.0
FlowField
ASCII
DATASET STRUCTURED_GRID
DIMENSIONS 1602 1 52
POINTS 83304 float
0 0 0
0.1 0 0
0.2 0 0
0.3 0 0
0.4 0 0
0.5 0 0
0.6 0 0
0.7 0 0
0.8 0 0
0.9 0 0
1 0 0
1.1 0 0
1.2 0 0
1.3 0 0
1.4 0 0
1.5 0 0
1.6 0 0
1.7 0 0
1.8 0 0
1.9 0 0
2 0 0
2.1 0 0
2.2 0 0
2.3 0 0
2.4 0 0
2.5 0 0
2.6 0 0
2.7 0 0
2.8 0 0
2.9 0 0
3 0 0
3.1 0 0
3.2 0 0
3.3 0 0
3.4 0 0
3.5 0 0
3.6 0 0
3.7 0 0
3.8 0 0
3.9 0 0
4 0 0
4.1 0 0
4.2 0 0
4.3 0 0
4.4 0 0
4.5 0 0
4.6 0 0
4.7 0 0
4.8 0 0
4.9 0 0
5 0 0
5.1 0 0
5.2 0 0
5.3 0 0
5.4 0 0
5.5 0 0
5.6 0 0
5.7 0 0
5.8 0 0
5.9 0 0
6 0 0
6.1 0 0
6.2 0 0
6.3 0 0
6.4 0 0
6.5 0 0
6.6 0 0
6.7 0 0
6.8 0 0
6.9 0 0
7 0 0
7.1 0 0
7.2 0 0
7.3 0 0
7.4 0 0
7.5 0 0
7.6 0 0
7.7 0 0
7.8 0 0
7.9 0 0
8 0 0
8.1 0 0
8.2 0 0
8.3 0 0
8.4 0 0
8.5 0 0
8.6 0 0
8.7 0 0
8.8 0 0
8.9 0 0
9 0 0
9.1 0 0
9.2 0 0
9.3 0 0
9.4 0 0
9.5 0 0
9.6 0 0
9.7 0 0
9.8 0 0
9.9 0 0
10 0 0
10.1 0 0
10.2 0 0
10.3 0 0
10.4 0 0
10.5 0 0
10.6 0 0
10.7 0 0
10.8 0 0
10.9 0 0
11 0 0
11.1 0 0
11.2 0 0
11.3 0 0
11.4 0 0
11.5 0 0
11.6 0 0
11.7 0 0
11.8 0 0
11.9 0 0
12 0 0
12.1 0 0
12.2 0 0
12.3 0 0
12.4 0 0
12.5 0 0
12.6 0 0
12.7 0 0
12.8 0 0
12.9 0 0
13 0 0
13.1 0 0
13.2 0 0
13.3 0 0
13.4 0 0
13.5 0 0
13.6 0 0
13.7 0 0
13.8 0 0
13.9 0 0
14 0 0
14.1 0 0
14.2 0 0
14.3 0 0
14.4 0 0
14.5 0 0
14.6 0 0
14.7 0 0
14.8 0 0
14.9 0 0
15 0 0
15.1 0 0
15.2 0 0
15.3 0 0
15.4 0 0
15.5 0 0
15.6 0 0
15.7 0 0
15.8 0 0
15.9 0 0
16 0 0
16.1 0 0
16.2 0 0
16.3 0 0
16.4 0 0
16.5 0 0
16.6 0 0
16.7 0 0
16.8 0 0
16.9 0 0
17 0 0
17.1 0 0
17.2 0 0
17.3 0 0
17.4 0 0
17.5 0 0
17.6 0 0
17.7 0 0
17.8 0 0
17.9 0 0
18 0 0
18.1 0 0
18.2 0 0
18.3 0 0
18.4 0 0
18.5 0 0
18.6 0 0
18.7 0 0
18.8 0 0
18.9 0 0
19 0 0
19.1 0 0
19.2 0 0
19.3 0 0
19.4 0 0
19.5 0 0
19.6 0 0
19.7 0 0
19.8 0 0
19.9 0 0
20 0 0
20.1 0 0
20.2 0 0
20.3 0 0
20.4 0 0
20.5 0 0
20.6 0 0
20.7 0 0
20.8 0 0
20.9 0 0
21 0 0
21.1 0 0
21.2 0 0
21.3 0 0
21.4 0 0
21.5 0 0
21.6 0 0
21.7 0 0
21.8 0 0
21.9 0 0
22 0 0
22.1 0 0
22.2 0 0
22.3 0 0
22.4 0 0
22.5 0 0
22.6 0 0
22.7 0 0
22.8 0 0
22.9 0 0
23 0 0
23.1 0 0
23.2 0 0
23.3 0 0
23.4 0 0
23.5 0 0
23.6 0 0
23.7 0 0
23.8 0 0
23.9 0 0
24 0 0
24.1 0 0
24.2 0 0
24.3 0 0
24.4 0 0
24.5 0 0
24.6 0 0
24.7 0 0
24.8 0 0
24.9 0 0
25 0 0
25.1 0 0
25.2 0 0
25.3 0 0
25.4 0 0
25.5 0 0
25.6 0 0
25.7 0 0
25.8 0 0
25.9 0 0
26 0 0
26.1 0 0
26.2 0 0
26.3 0 0
26.4 0 0
26.5 0 0
26.6 0 0
26.7 0 0
26.8 0 0
26.9 0 0
27 0 0
27.1 0 0
27.2 0 0
27.3 0 0
27.4 0 0
27.5 0 0
27.6 0 0
27.7 0 0
27.8 0 0
27.9 0 0
28 0 0
28.1 0 0
28.2 0 0
28.3 0 0
28.4 0 0
28.5 0 0
28.6 0 0
28.7 0 0
28.8 0 0
28.9 0 0
29 0 0
29.1 0 0
29.2 0 0
29.3 0 0
29.4 0 0
29.5 0 0
29.6 0 0
29.7 0 0
29.8 0 0
29.9 0 0
30 0 0
30.1 0 0
30.2 0 0
30.3 0 0
30.4 0 0
30.5 0 0
30.6 0 0
30.7 0 0
30.8 0 0
30.9 0 0
31 0 0
31.1 0 0
31.2 0 0
31.3 0 0
31.4 0 0
31.5 0 0
31.6 0 0
31.7 0 0
31.8 0 0
31.9 0 0
32 0 0
32.1 0 0
32.2 0 0
32.3 0 0
32.4 0 0
32.5 0 0
32.6 0 0
32.7 0 0
32.8 0 0
32.9 0 0
33 0 0
33.1 0 0
33.2 0 0
33.3 0 0
33.4 0 0
33.5 0 0
33.6 0 0
33.7 0 0
33.8 0 0
33.9 0 0
34 0 0
34.1 0 0
34.2 0 0
34.3 0 0
34.4 0 0
34.5 0 0
34.6 0 0
34.7 0 0
34.8 0 0
34.9 0 0
35 0 0
35.1 0 0
35.2 0 0
35.3 0 0
35.4 0 0
35.5 0 0
35.6 0 0
35.7 0 0
35.8 0 0
35.9 0 0
36 0 0
36.1 0 0
36.2 0 0
36.3 0 0
36.4 0 0
36.5 0 0
36.6 0 0
36.7 0 0
36.8 0 0
36.9 0 0
37 0 0
37.1 0 0
37.2 0 0
37.3 0 0
37.4 0 0
37.5 0 0
37.6 0 0
37.7 0 0
37.8 0 0
37.9 0 0
38 0 0
38.1 0 0
38.2 0 0
38.3 0 0
38.4 0 0
38.5 0 0
38.6 0 0
38.7 0 0
38.8 0 0
38.9 0 0
39 0 0
39.1 0 0
39.2 0 0
39.3 0 0
39.4 0 0
39.5 0 0
39.6 0 0
39.7 0 0
39.8 0 0
39.9 0 0
40 0 0
40.1 0 0
40.2 0 0
40.3 0 0
40.4 0 0
40.5 0 0
40.6 0 0
40.7 0 0
40.8 0 0
40.9 0 0
41 0 0
41.1 0 0
41.2 0 0
41.3 0 0
41.4 0 0
41.5 0 0
41.6 0 0
41.7 0 0
41.8 0 0
41.9 0 0
42 0 0
42.1 0 0
42.2 0 0
42.3 0 0
42.4 0 0
42.5 0 0
42.6 0 0
42.7 0 0
42.8 0 0
42.9 0 0
43 0 0
43.1 0 0
43.2 0 0
43.3 0 0
43.4 0 0
43.5 0 0
43.6 0 0
43.7 0 0
43.8 0 0
43.9 0 0
44 0 0
44.1 0 0
44.2 0 0
44.3 0 0
44.4 0 0
44.5 0 0
44.6 0 0
44.7 0 0
44.8 0 0
44.9 0 0
45 0 0
45.1 0 0
45.2 0 0
45.3 0 0
45.4 0 0
45.5 0 0
45.6 0 0
45.7 0 0
45.8 0 0
45.9 0 0
46 0 0
46.1 0 0
46.2 0 0
46.3 0 0
46.4 0 0
46.5 0 0
46.6 0 0
46.7 0 0
46.8 0 0
46.9 0 0
47 0 0
47.1 0 0
47.2 0 0
47.3 0 0
47.4 0 0
47.5 0 0
47.6 0 0
47.7 0 0
47.8 0 0
47.9 0 0
48 0 0
48.1 0 0
48.2 0 0
48.3 0 0
48.4 0 0
48.5 0 0
48.6 0 0
48.7 0 0
48.8 0 0
48.9 0 0
49 0 0
49.1 0 0
49.2 0 0
49.3 0 0
49.4 0 0
49.5 0 0
49.6 0 0
49.7 0 0
49.8 0 0
49.9 0 0
50 0 0
50.1 0 0
50.2 0 0
50.3 0 0
50.4 0 0
50.5 0 0
50.6 0 0
50.7 0 0
50.8 0 0
50.9 0 0
51 0 0
51.1 0 0
51.2 0 0
51.3 0 0
51.4 0 0
51.5 0 0
51.6 0 0
51.7 0 0
51.8 0 0
51.9 0 0
52 0 0
52.1 0 0
52.2 0 0
52.3 0 0
52.4 0 0
52.5 0 0
52.6 0 0
52.7 0 0
52.8 0 0
52.9 0 0
53 0 0
53.1 0 0
53.2 0 0
53.3 0 0
53.4 0 0
53.5 0 0
53.6 0 0
53.7 0 0
53.8 0 0
53.9 0 0
54 0 0
54.1 0 0
54.2 0 0
54.3 0 0
54.4 0 0
54.5 0 0
54.6 0 0
54.7 0 0
54.8 0 0
54.9 0 0
55 0 0
55.1 0 0
55.2 0 0
55.3 0 0
55.4 0 0
55.5 0 0
55.6 0 0
55.7 0 0
55.8 0 0
55.9 0 0
56 0 0
56.1 0 0
56.2 0 0
56.3 0 0
56.4 0 0
56.5 0 0
56.6 0 0
56.7 0 0
56.8 0 0
56.9 0 0
57 0 0
57.1 0 0
57.2 0 0
57.3 0 0
57.4 0 0
57.5 0 0
57.6 0 0
57.7 0 0
57.8 0 0
57.9 0 0
58 0 0
58.1 0 0
58.2 0 0
58.3 0 0
58.4 0 0
58.5 0 0
58.6 0 0
58.7 0 0
58.8 0 0
58.9 0 0
59 0 0
59.1 0 0
59.2 0 0
59.3 0 0
59.4 0 0
59.5 0 0
59.6 0 0
59.7 0 0
59.8 0 0
59.9 0 0
60 0 0
60.1 0 0
60.2 0 0
60.3 0 0
60.4 0 0
60.5 0 0
60.6 0 0
60.7 0 0
60.8 0 0
60.9 0 0
61 0 0
61.1 0 0
61.2 0 0
61.3 0 0
61.4 0 0
61.5 0 0
61.6 0 0
61.7 0 0
61.8 0 0
61.9 0 0
62 0 0
62.1 0 0
62.2 0 0
62.3 0 0
62.4 0 0
62.5 0 0
62.6 0 0
62.7 0 0
62.8 0 0
62.9 0 0
63 0 0
63.1 0 0
63.2 0 0
63.3 0 0
63.4 0 0
63.5 0 0
63.6 0 0
63.7 0 0
63.8 0 0
63.9 0 0
64 0 0
64.1 0 0
64.2 0 0
64.3 0 0
64.4 0 0
64.5 0 0
64.6 0 0
64.7 0 0
64.8 0 0
64.9 0 0
65 0 0
65.1 0 0
65.2 0 0
65.3 0 0
65.4 0 0
65.5 0 0
65.6 0 0
65.7 0 0
65.8 0 0
65.9 0 0
66 0 0
66.1 0 0
66.2 0 0
66.3 0 0
66.4 0 0
66.5 0 0
66.6 0 0
66.7 0 0
66.8 0 0
66.9 0 0
67 0 0
67.1 0 0
67.2 0 0
67.3 0 0
67.4 0 0
67.5 0 0
67.6 0 0
67.7 0 0
67.8 0 0
67.9 0 0
68 0 0
68.1 0 0
68.2 0 0
68.3 0 0
68.4 0 0
68.5 0 0
68.6 0 0
68.7 0 0
68.8 0 0
68.9 0 0
69 0 0
69.1 0 0
69.2 0 0
69.3 0 0
69.4 0 0
69.5 0 0
69.6 0 0
69.7 0 0
69.8 0 0
69.9 0 0
70 0 0
70.1 0 0
70.2 0 0
70.3 0 0
70.4 0 0
70.5 0 0
70.6 0 0
70.7 0 0
70.8 0 0
70.9 0 0
71 0 0
71.1 0 0
71.2 0 0
71.3 0 0
71.4 0 0
71.5 0 0
71.6 0 0
71.7 0 0
71.8 0 0
71.9 0 0
72 0 0
72.1 0 0
72.2 0 0
72.3 0 0
72.4 0 0
72.5 0 0
72.6 0 0
72.7 0 0
72.8 0 0
72.9 0 0
73 0 0
73.1 0 0
73.2 0 0
73.3 0 0
73.4 0 0
73.5 0 0
73.6 0 0
73.7 0 0
73.8 0 0
73.9 0 0
74 0 0
74.1 0 0
74.2 0 0
74.3 0 0
74.4 0 0
74.5 0 0
74.6 0 0
74.7 0 0
74.8 0 0
74.9 0 0
75 0 0
75.1 0 0
75.2 0 0
75.3 0 0
75.4 0 0
75.5 0 0
75.6 0 0
75.7 0 0
75.8 0 0
75.9 0 0
76 0 0
76.1 0 0
76.2 0 0
76.3 0 0
76.4 0 0
76.5 0 0
76.6 0 0
76.7 0 0
76.8 0 0
76.9 0 0
77 0 0
77.1 0 0
77.2 0 0
77.3 0 0
77.4 0 0
77.5 0 0
77.6 0 0
77.7 0 0
77.8 0 0
77.9 0 0
78 0 0
78.1 0 0
78.2 0 0
78.3 0 0
78.4 0 0
78.5 0 0
78.6 0 0
78.7 0 0
78.8 0 0
78.9 0 0
79 0 0
79.1 0 0
79.2 0 0
79.3 0 0
79.4 0 0
79.5 0 0
79.6 0 0
79.7 0 0
79.8 0 0
79.9 0 0
80 0 0
80.1 0 0
80.2 0 0
80.3 0 0
80.4 0 0
80.5 0 0
80.6 0 0
80.7 0 0
80.8 0 0
80.9 0 0
81 0 0
81.1 0 0
81.2 0 0
81.3 0 0
81.4 0 0
81.5 0 0
81.6 0 0
81.7 0 0
81.8 0 0
81.9 0 0
82 0 0
82.1 0 0
82.2 0 0
82.3 0 0
82.4 0 0
82.5 0 0
82.6 0 0
82.7 0 0
82.8 0 0
82.9 0 0
83 0 0
83.1 0 0
83.2 0 0
83.3 0 0
83.4 0 0
83.5 0 0
83.6 0 0
83.7 0 0
83.8 0 0
83.9 0 0
84 0 0
84.1 0 0
84.2 0 0
84.3 0 0
84.4 0 0
84.5 0 0
84.6 0 0
84.7 0 0
84.8 0 0
84.9 0 0
85 0 0
85.1 0 0
85.2 0 0
85.3 0 0
85.4 0 0
85.5 0 0
85.6 0 0
85.7 0 0
85.8 0 0
85.9 0 0
86 0 0
86.1 0 0
86.2 0 0
86.3 0 0
86.4 0 0
86.5 0 0
86.6 0 0
86.7 0 0
86.8 0 0
86.9 0 0
87 0 0
87.1 0 0
87.2 0 0
87.3 0 0
87.4 0 0
87.5 0 0
87.6 0 0
87.7 0 0
87.8 0 0
87.9 0 0
88 0 0
88.1 0 0
88.2 0 0
88.3 0 0
88.4 0 0
88.5 0 0
88.6 0 0
88.7 0 0
88.8 0 0
88.9 0 0
89 0 0
89.1 0 0
89.2 0 0
89.3 0 0
89.4 0 0
89.5 0 0
89.6 0 0
89.7 0 0
89.8 0 0
89.9 0 0
90 0 0
90.1 0 0
90.2 0 0
90.3 0 0
90.4 0 0
90.5 0 0
90.6 0 0
90.7 0 0
90.8 0 0
90.9 0 0
91 0 0
91.1 0 0
91.2 0 0
91.3 0 0
91.4 0 0
91.5 0 0
91.6 0 0
91.7 0 0
91.8 0 0
91.9 0 0
92 0 0
92.1 0 0
92.2 0 0
92.3 0 0
92.4 0 0
92.5 0 0
92.6 0 0
92.7 0 0
92.8 0 0
92.9 0 0
93 0 0
93.1 0 0
93.2 0 0
93.3 0 0
93.4 0 0
93.5 0 0
93.6 0 0
93.7 0 0
93.8 0 0
93.9 0 0
94 0 0
94.1 0 0
94.2 0 0
94.3 0 0
94.4 0 0
94.5 0 0
94.6 0 0
94.7 0 0
94.8 0 0
94.9 0 0
95 0 0
95.1 0 0
95.2 0 0
95.3 0 0
95.4 0 0
95.5 0 0
95.6 0 0
95.7 0 0
95.8 0 0
95.9 0 0
96 0 0
96.1 0 0
96.2 0 0
96.3 0 0
96.4 0 0
96.5 0 0
96.6 0 0
96.7 0 0
96.8 0 0
96.9 0 0
97 0 0
97.1 0 0
97.2 0 0
97.3 0 0
97.4 0 0
97.5 0 0
97.6 0 0
97.7 0 0
97.8 0 0
97.9 0 0
98 0 0
98.1 0 0
98.2 0 0
98.3 0 0
98.4 0 0
98.5 0 0
98.6 0 0
98.7 0 0
98.8 0 0
98.9 0 0
99 0 0
99.1 0 0
99.2 0 0
99.3 0 0
99.4 0 0
99.5 0 0
99.6 0 0
99.7 0 0
99.8 0 0
99.9 0 0
100 0 0
100.1 0 0
100.2 0 0
100.3 0 0
100.4 0 0
100.5 0 0
100.6 0 0
100.7 0 0
100.8 0 0
100.9 0 0
101 0 0
101.1 0 0
101.2 0 0
101.3 0 0
101.4 0 0
101.5 0 0
101.6 0 0
101.7 0 0
101.8 0 0
101.9 0 0
102 0 0
102.1 0 0
102.2 0 0
102.3 0 0
102.4 0 0
102.5 0 0
102.6 0 0
102.7 0 0
102.8 0 0
102.9 0 0
103 0 0
103.1 0 0
103.2 0 0
103.3 0 0
103.4 0 0
103.5 0 0
103.6 0 0
103.7 0 0
103.8 0 0
103.9 0 0
104 0 0
104.1 0 0
104.2 0 0
104.3 0 0
104.4 0 0
104.5 0 0
104.6 0 0
104.7 0 0
104.8 0 0
104.9 0 0
105 0 0
105.1 0 0
105.2 0 0
105.3 0 0
105.4 0 0
105.5 0 0
105.6 0 0
105.7 0 0
105.8 0 0
105.9 0 0
106 0 0
106.1 0 0
106.2 0 0
106.3 0 0
106.4 0 0
106.5 0 0
106.6 0 0
106.7 0 0
106.8 0 0
106.9 0 0
107 0 0
107.1 0 0
107.2 0 0
107.3 0 0
107.4 0 0
107.5 0 0
107.6 0 0
107.7 0 0
107.8 0 0
107.9 0 0
108 0 0
108.1 0 0
108.2 0 0
108.3 0 0
108.4 0 0
108.5 0 0
108.6 0 0
108.7 0 0
108.8 0 0
108.9 0 0
109 0 0
109.1 0 0
109.2 0 0
109.3 0 0
109.4 0 0
109.5 0 0
109.6 0 0
109.7 0 0
109.8 0 0
109.9 0 0
110 0 0
110.1 0 0
110.2 0 0
110.3 0 0
110.4 0 0
110.5 0 0
110.6 0 0
110.7 0 0
110.8 0 0
110.9 0 0
111 0 0
111.1 0 0
111.2 0 0
111.3 0 0
111.4 0 0
111.5 0 0
111.6 0 0
111.7 0 0
111.8 0 0
111.9 0 0
112 0 0
[...]
POINT_DATA 83304

SCALARS pressure float 1
LOOKUP_TABLE default
0
0
0
0
0
0
0
0
0
0
0
0
0
0
0
0
0
0
0
0
0
0
0
0
0
0
0
0
0
0
0
0
0
0
0
0
0
0
0
0
0
0
0
0
0
0
0
0
0
0
0
0
0
0
0
0
0
0
0
0
0
0
0
0
0
0
0
0
0
0
0
0
0
0
0
0
0
0
0
0
0
0
0
0
0
0
0
0
0
0
0
0
0
0
0
0
0
0
0
0
0
0
0
0
0
0
0
0
0
0
0
0
0
0
0
0
0
0
0
0
0
0
0
0
0
0
0
0
0
0
0
0
0
0
0
0
0
0
0
0
0
0
0
0
0
0
0
0
0
0
0
0
0
0
0
0
0
0
0
0
0
0
0
0
0
0
0
0
0
0
0
0
0
0
0
0
0
0
0
0
0
0
0
0
0
0
0
0
0
0
0
0
0
0
0
0
0
0
0
0
0
0
0
0
0
0
0
0
0
0
0
0
0
0
0
0
0
0
0
0
0
0
0
0
0
0
0
0
0
0
0
0
0
0
0
0
0
0
0
0
0
0
0
0
0
0
0
0
0
0
0
0
0
0
0
0
0
0
0
0
0
0
0
0
0
0
0
0
0
0
0
0
0
0
0
0
0
0
0
0
0
0
0
0
0
0
0
0
0
0
0
0
0
0
0
0
0
0
0
0
0
0
0
0
0
0
0
0
0
0
0
0
0
0
0
0
0
0
0
0
0
0
0
0
0
0
0
0
0
0
0
0
0
0
0
0
0
0
0
0
0
0
0
0
0
0
0
0
0
0
0
0
0
0
0
0
0
0
0
0
0
0
0
0
0
0
0
0
0
0
0
0
0
0
0
0
0
0
0
0
0
0
0
0
0
0
0
0
0
0
0
0
0
0
0
0
0
0
0
0
0
0
0
0
0
0
0
0
0
0
0
0
0
0
0
0
0
0
0
0
0
0
0
0
0
0
0
0
0
0
0
0
0
0
0
0
0
0
0
0
0
0
0
0
0
0
0
0
0
0
0
0
0
0
0
0
0
0
0
0
0
0
0
0
0
0
0
0
0
0
0
0
0
0
0
0
0
0
0
0
0
0
0
0
0
0
0
0
0
0
0
0
0
0
0
0
0
0
0
0
0
0
0
0
0
0
0
0
0
0
0
0
0
0
0
0
0
0
0
0
0
0
0
0
0
0
0
0
0
0
0
0
0
0
0
0
0
0
0
0
0
0
0
0
0
0
0
0
0
0
0
0
0
0
0
0
0
0
0
0
0
0
0
0
0
0
0
0
0
0
0
0
0
0
0
0
0
0
0
0
0
0
0
0
0
0
0
0
0
0
0
0
0
0
0
0
0
0
0
0
0
0
0
0
0
0
0
0
0
0
0
0
0
0
0
0
0
0
0
0
0
0
0
0
0
0
0
0
0
0
0
0
0
0
0
0
0
0
0
0
0
0
0
0
0
0
0
0
0
0
0
0
0
0
0
0
0
0
0
0
0
0
0
0
0
0
0
0
0
0
0
0
0
0
0
0
0
0
0
0
0
0
0
0
0
0
0
0
0
0
0
0
0
0
0
0
0
0
0
0
0
0
0
0
0
0
0
0
0
0
0
0
0
0
0
0
0
0
0
0
0
0
0
0
0
0
0
0
0
0
0
0
0
0
0
0
0
0
0
0
0
0
0
0
0
0
0
0
0
0
0
0
0
0
0
0
0
0
0
0
0
0
0
0
0
0
0
0
0
0
0
0
0
0
0
0
0
0
0
0
0
0
0
0
0
0
0
0
0
0
0
0
0
0
0
0
0
0
0
0
0
0
0
0
0
0
0
0
0
0
0
0
0
0
0
0
0
0
0
0
0
0
0
0
0
0
0
0
0
0
0
0
0
0
0
0
0
0
0
0
0
0
0
0
0
0
0
0
0
0
0
0
0
0
0
0
0
0
0
0
0
0
0
0
0
0
0
0
0
0
0
0
0
0
0
0
0
0
0
0
0
0
0
0
0
0
0
0
0
0
0
0
0
0
0
0
0
0
0
0
0
0
0
0
0
0
0
0
0
0
0
0
0
0
0
0
0
0
0
0
0
0
0
0
0
0
0
0
0
0
0
0
0
0
0
0
0
0
0
0
0
0
0
0
0
0
0
0
0
0
0
0
0
0
0
0
0
0
0
0
0
0
0
0
0
0
0
0
0
0
0
0
0
0
0
0
0
0
0
0
0
0
0
0
0
0
0
0
0
0
0
0
0
0
0
0
0
0
0
0
0
0
0
0
0
0
0
0
0
0
0
0
0
0
0
0
0
0
0
0
0
0
0
0
0
0
0
0
0
0
0
0
0
0
0
0
0
0
0
0
0
0
0
0
0
0
0
0
0
0
0
0
0
0
0
0
0
0
0
0
0
0
0
0
0
0
0
0
0
0
0
0
0
0
0
0
0
0
0
0
0
0
0
0
0
0
0
0
0
0
0
0
0
0
0
0
0
0
0
0
0
0
0
0
0
0
0
0
0
0
0
0
0
0
0
0
0
0
0
0
0
0
0
0
0
0
0
0
0
0
0
0
0
0
0
0
0
0
0
0
0
0
0
0
0
0
0
0
0
0
0
0
0
0
0
0
0
0
0
0
0
0
0
0
0
0
0
0
0
0
0
0
0
0
0
0
0
0
0
0
0
0
0
0
0
0
0
0
0
0
0
0
0
0
0
0
0
0
0
0
0
0
0
0
0
0
0
0
0
0
0
0
0
0
0
0
0
0
0
0
0
0
0
0
0
0
0
0
0
0
0
0
0
0
0
0
0
0
0
0
0
0
0
0
0
0
0
0
0
0
0
0
0
0
0
0
0
0
0
0
0
0
0
0
0
0
0
0
0
0
0
0
0
0
0
0
0
0
0
0
0
0
0
0
0
0
0
0
0
0
0
0
0
0
0
0
0
0
0
0
0
0
0
0
0
0
0
0
0
0
0
0
0
0
0
0
0
0
0
0
0
0
0
0
0
0
0
0
0
0
0
0
0
0
0
0
0
0
0
0
0
0
0
0
0
0
0
0
0
0
0
0
0
0
0
0
0
0
0
0
0
0
0
0
0
0
0
0
0
0
0
0
0
0
0
0
0
0
0
0
0
0
0
0
0
0
0
0
0
0
0
0
0
0
0
0
0
0
0
0
0
0
0
0
0
0
0
0
0
0
0
0
0
0
0
0
0
0
0
0
0
0
0
0
0
0
0
0
0
0
0
0
0
0
0
0
0
0
0
0
0
0
0
0
0
0
0
0
0
0
0
0
0
0
0
0
0
0
0
0
0
0
0
0
0
0
0
0
0
0
0
0
0
0
0
0
0
0
0
0
0
0
0
0
0
0
0
0
0
0
0
0
0
0
0
0
0
0
0
0
0
0
0
0
0
0
0
0
0
0
0
0
0
0
0
0
0
0
0
0
0
0
0
0
0
0
0
0
0
0
0
0
0
0
0
0
0
0
0
0
0
0
0
0
0
0
0
0
0
0
0
0
0
0
0
0
0
0
0
0
0
0
0
0
0
0
0
0
0
0
0
0
0
0
0
0
0
0
0
0
0
0
0
0
0
0
0
0
0
0
0
0
0
0
0
0
0
0
0
0
0
0
0
0.0776415
0.052903
0.0436505
0.0357426
0.03048
0.0271088
0.0248019
0.023116
0.0218008
0.0207277
0.0198235
0.0190436
0.0183596
0.0177519
0.0172066
0.0167134
0.0162644
0.0158532
0.0154749
0.0151254
0.0148011
0.0144993
0.0142174
0.0139533
0.0137051
0.0134714
0.0132507
0.0130417
0.0128434
0.0126548
0.0124753
0.0123039
0.0121401
0.0119833
0.0118328
0.0116883
0.0115494
0.0114156
0.0112867
0.0111621
0.0110418
0.0109254
0.0108128
0.0107037
0.0105979
0.0104952
0.0103955
0.0102986
0.0102044
0.0101128
0.0100238
0.00993705
0.00985256
0.00977019
0.0096899
0.00961163
0.0095353
0.00946084
0.00938822
0.00931737
0.00924822
0.00918071
0.00911479
0.00905045
0.00898764
0.00892632
0.00886646
0.00880802
0.00875094
0.00869521
0.0086408
0.00858767
0.00853581
0.0084852
0.00843582
0.00838763
0.0083406
0.00829472
0.00824996
0.0082063
0.00816371
0.00812218
0.00808168
0.0080422
0.00800371
0.00796619
0.00792962
0.007894
0.0078593
0.0078255
0.00779257
0.00776051
0.00772929
0.00769889
0.00766929
0.00764049
0.00761246
0.00758517
0.00755861
0.00753277
0.00750764
0.00748319
0.00745943
0.00743632
0.00741385
0.00739202
0.0073708
0.00735021
0.00733023
0.00731083
0.00729202
0.00727376
0.00725605
0.00723884
0.00722212
0.00720585
0.00719001
0.00717456
0.00715948
0.00714474
0.00713033
0.00711625
0.00710249
0.00708909
0.00707609
0.00706355
0.00705151
0.00704003
0.00702915
0.0070189
0.00700925
0.00700015
0.00699145
0.00698298
0.00697453
0.00696582
0.00695659
0.0069466
0.00693573
0.00692399
0.00691167
0.00689933
0.00688788
0.00687863
0.00687323
0.00687364
0.0068819
0.00689999
0.0069295
0.00697119
0.00702459
0.00708751
0.00715556
0.00722175
0.00727623
0.00730618
0.00729602
0.00722799
0.00708311
0.0068427
0.0064905
0.00601527
0.0054141
0.00469608
0.00388614
0.00302857
0.00218932
0.0014564
0.000937151
0.000751957
0.00102457
0.00187009
0.00338249
0.00562378
0.00861637
0.0123422
0.0167432
0.0217244
0.0271664
0.0329332
0.0388715
0.0448163
0.0506128
0.0561195
0.0611799
0.0656188
0.0692956
0.0721593
0.0742351
0.0755625
0.0761537
0.0760049
0.0751272
0.0735643
0.0713897
0.0686938
0.0655739
0.0621276
0.0584493
0.0546278
0.0507445
0.046871
0.0430684
0.0393864
0.0358635
0.0325279
0.0293981
0.0264847
0.0237915
0.0213172
0.019056
0.0169993
0.0151364
0.0134552
0.0119428
0.0105862
0.00937233
0.00828865
0.0073231
0.00646431
0.00570167
0.00502535
0.00442635
0.0038964
0.00342801
0.00301441
0.00264949
0.00232774
0.00204425
0.00179463
0.00157494
0.00138169
0.00121179
0.00106247
0.000931298
0.000816105
0.000714982
0.000626238
0.000548382
0.000480099
0.000420227
0.000367744
0.00032175
0.000281452
0.000246154
0.000215241
0.000188175
0.000164482
0.000143746
0.000125602
0.000109728
9.5844e-05
8.37021e-05
7.30859e-05
6.38053e-05
5.56938e-05
4.86054e-05
4.24121e-05
3.70019e-05
3.22766e-05
2.81501e-05
2.45473e-05
2.14021e-05
1.86569e-05
1.62612e-05
1.4171e-05
1.23475e-05
1.07569e-05
9.36979e-06
8.16027e-06
7.10579e-06
6.18662e-06
5.38553e-06
4.68745e-06
4.07924e-06
3.54941e-06
3.08794e-06
2.68606e-06
2.33613e-06
2.03149e-06
1.76631e-06
1.53552e-06
1.33469e-06
1.15996e-06
1.00795e-06
8.75741e-07
7.6076e-07
6.6078e-07
5.73857e-07
4.98297e-07
4.32625e-07
3.75554e-07
3.25966e-07
2.82885e-07
2.45464e-07
2.12963e-07
1.84739e-07
1.60234e-07
1.38959e-07
1.20493e-07
1.04467e-07
9.05591e-08
7.84923e-08
6.80242e-08
5.89441e-08
5.10691e-08
4.42402e-08
3.83193e-08
3.31863e-08
2.87371e-08
2.4881e-08
2.15395e-08
1.86443e-08
1.61361e-08
1.39634e-08
1.20817e-08
1.04522e-08
9.04133e-09
7.81985e-09
6.7625e-09
5.84736e-09
5.0554e-09
4.37014e-09
3.77727e-09
3.26441e-09
2.82082e-09
2.43719e-09
2.10547e-09
1.81866e-09
1.57072e-09
1.35641e-09
1.17118e-09
1.01113e-09
8.7283e-10
7.53354e-10
6.50149e-10
5.61011e-10
4.84032e-10
4.17563e-10
3.60176e-10
3.10636e-10
2.67876e-10
2.30973e-10
1.99128e-10
1.71652e-10
1.47949e-10
1.27502e-10
1.09867e-10
9.46597e-11
8.15466e-11
7.02411e-11
6.04953e-11
5.20951e-11
4.48555e-11
3.86171e-11
3.32421e-11
2.86116e-11
2.46229e-11
2.11875e-11
1.82291e-11
1.56818e-11
1.34887e-11
1.16008e-11
9.97583e-12
8.57737e-12
7.37399e-12
6.33862e-12
5.44791e-12
4.68175e-12
4.02281e-12
3.45616e-12
2.96894e-12
2.55006e-12
2.18999e-12
1.88051e-12
1.61455e-12
1.38602e-12
1.18968e-12
1.02101e-12
8.76142e-13
7.51722e-13
6.44883e-13
5.53151e-13
4.74402e-13
4.06807e-13
3.48794e-13
2.99012e-13
2.56299e-13
2.19656e-13
1.88225e-13
1.6127e-13
1.38156e-13
1.18339e-13
1.01352e-13
8.67946e-14
7.43207e-14
6.36342e-14
5.448e-14
4.66382e-14
3.99193e-14
3.41604e-14
2.92217e-14
2.4984e-14
2.13465e-14
1.8224e-14
1.55452e-14
1.32496e-14
1.12864e-14
9.61255e-15
8.19202e-15
6.99513e-15
5.99737e-15
5.17725e-15
4.51312e-15
3.97929e-15
3.54292e-15
3.16319e-15
2.79456e-15
2.39445e-15
1.93425e-15
1.41083e-15
8.54257e-16
3.27468e-16
-8.44809e-17
-2.95295e-16
-2.44191e-16
7.86762e-17
6.16585e-16
1.24748e-15
1.80501e-15
2.11665e-15
2.05006e-15
1.55527e-15
6.89445e-16
-3.8524e-16
-1.43323e-15
-2.20083e-15
-2.48177e-15
-2.17533e-15
-1.32054e-15
-9.516e-17
1.22227e-15
2.31872e-15
2.9247e-15
2.88345e-15
2.1926e-15
1.00692e-15
-3.98963e-16
-1.69836e-15
-2.59294e-15
-2.88507e-15
-2.52362e-15
-1.61232e-15
-3.79596e-16
8.80943e-16
1.88333e-15
2.41653e-15
2.38979e-15
1.8464e-15
9.44301e-16
-8.90908e-17
-1.01507e-15
-1.63964e-15
-1.85405e-15
-1.65166e-15
-1.11925e-15
-4.07673e-16
3.09254e-16
8.76485e-16
1.19032e-15
1.21532e-15
9.83533e-16
5.78578e-16
1.10163e-16
-3.13722e-16
-6.10276e-16
-7.36309e-16
-6.91669e-16
-5.12602e-16
-2.5811e-16
6.50105e-18
2.24733e-16
3.59528e-16
3.97824e-16
3.49088e-16
2.39232e-16
1.02088e-16
-2.92337e-17
-1.29183e-16
-1.83676e-16
-1.90781e-16
-1.58682e-16
-1.01913e-16
-3.70167e-17
2.13002e-17
6.28192e-17
8.29444e-17
8.24143e-17
6.59651e-17
4.0462e-17
1.30136e-17
-1.05302e-17
-2.64711e-17
-3.35017e-17
-3.23978e-17
-2.53575e-17
-1.52123e-17
-4.70288e-18
4.04598e-18
9.79322e-18
1.2203e-17
1.1678e-17
9.08744e-18
5.47307e-18
1.79803e-18
-1.22133e-18
-3.18925e-18
-4.02062e-18
-3.87223e-18
-3.04519e-18
-1.88609e-18
-7.06971e-19
2.65154e-19
9.07808e-19
1.19644e-18
1.18067e-18
9.53058e-19
6.18696e-19
2.7145e-19
-2.05676e-20
-2.20175e-19
-3.18778e-19
-3.29259e-19
-2.76931e-19
-1.90918e-19
-9.74904e-20
-1.60281e-20
4.24301e-20
7.45993e-20
8.30822e-20
7.39905e-20
5.46742e-20
3.19561e-20
1.10426e-20
-4.90583e-21
-1.46791e-20
-1.85909e-20
-1.79109e-20
-1.43106e-20
-9.42184e-21
-4.55242e-21
-5.58996e-22
2.15369e-21
3.5501e-21
3.84217e-21
3.36475e-21
2.47209e-21
1.46731e-21
5.66022e-22
-1.11229e-22
-5.26562e-22
-7.0188e-22
-6.93423e-22
-5.6933e-22
-3.93216e-22
-2.14546e-22
-6.50755e-23
4.02385e-23
9.96599e-23
1.2007e-22
1.12548e-22
8.88552e-23
5.91227e-23
3.06972e-23
7.9153e-24
-7.50683e-24
-1.57708e-23
-1.82264e-23
-1.66966e-23
-1.298e-23
-8.55012e-24
-4.42854e-24
-1.18554e-24
9.80825e-25
2.1324e-24
2.47788e-24
2.27911e-24
1.78542e-24
1.1963e-24
6.47439e-25
2.13353e-25
-8.05811e-26
-2.42591e-25
-2.99514e-25
-2.84732e-25
-2.29905e-25
-1.60375e-25
-9.3521e-26
-3.91316e-26
-9.07333e-28
2.16378e-26
3.13588e-26
3.20217e-26
2.73005e-26
2.02099e-26
1.28849e-26
6.60025e-27
1.92403e-27
-1.07645e-27
-2.6332e-27
-3.11241e-27
-2.89756e-27
-2.31967e-27
-1.62607e-27
-9.763e-28
-4.54122e-28
-8.67599e-29
1.35015e-28
2.39567e-28
2.61517e-28
2.33463e-28
1.81652e-28
1.24575e-28
7.34261e-29
3.35387e-29
6.12512e-30
-1.0092e-29
-1.75734e-29
-1.90487e-29
-1.69666e-29
-1.32356e-29
-9.16577e-30
-5.53221e-30
-2.69421e-30
-7.2652e-31
4.63889e-31
1.04745e-30
1.21046e-30
1.11904e-30
9.02605e-31
6.50662e-31
4.17249e-31
2.28871e-31
9.30612e-32
5.95042e-33
-4.18959e-32
-6.14716e-32
-6.29375e-32
-5.44655e-32
-4.19235e-32
-2.90597e-32
-1.79245e-32
-9.35396e-33
-3.41187e-33
2.58008e-34
2.18152e-33
2.89579e-33
2.86377e-33
2.44029e-33
1.87038e-33
1.30487e-33
8.22685e-34
4.53319e-34
1.95944e-34
3.3954e-35
-5.50933e-35
-9.34222e-35
-9.99108e-35
-8.89537e-35
-7.05286e-35
-5.0877e-35
-3.34031e-35
-1.95528e-35
-9.55259e-36
-2.96791e-36
9.13484e-37
2.84416e-36
3.48941e-36
3.37445e-36
2.87755e-36
2.24771e-36
1.63229e-36
1.10562e-36
6.94125e-37
3.95902e-37
1.94769e-37
6.94383e-38
-1.08994e-39
-3.48085e-38
-4.57396e-38
-4.39918e-38
-3.6326e-38
-2.69026e-38
-1.80135e-38
-1.07065e-38
-5.26826e-39
-1.57036e-39
7.02109e-40
1.91114e-39
2.39054e-39
2.4128e-39
2.18135e-39
1.83646e-39
1.46706e-39
1.12373e-39
8.30594e-40
5.94844e-40
4.13926e-40
2.80449e-40
1.85354e-40
1.19758e-40
7.58791e-41
4.73933e-41
2.94348e-41
1.84293e-41
1.18569e-41
8.00832e-42
5.76827e-42
4.43838e-42
3.60067e-42
3.01799e-42
2.56451e-42
2.17928e-42
1.83667e-42
1.52835e-42
1.25322e-42
1.01201e-42
8.04952e-43
6.30987e-43
4.87809e-43
3.72213e-43
2.80529e-43
2.08989e-43
1.54e-43
1.12314e-43
8.11168e-44
5.80459e-44
4.11734e-44
2.89621e-44
2.02104e-44
1.3996e-44
9.62174e-45
6.56826e-45
4.45357e-45
3.00009e-45
2.00828e-45
1.33619e-45
8.83795e-46
5.81231e-46
3.8013e-46
2.47268e-46
1.6e-46
1.03002e-46
6.59778e-47
4.20562e-47
2.66802e-47
1.6847e-47
1.05893e-47
6.62631e-48
4.12828e-48
2.56093e-48
1.58194e-48
9.73151e-49
5.9621e-49
3.63812e-49
2.21126e-49
1.33881e-49
8.07487e-50
4.85196e-50
2.9046e-50
1.73248e-50
1.02963e-50
6.09743e-51
3.59821e-51
2.11602e-51
1.24012e-51
7.24335e-52
4.21659e-52
2.44651e-52
1.41486e-52
8.15593e-53
4.68647e-53
2.68437e-53
1.53278e-53
8.72511e-54
4.9514e-54
2.80134e-54
1.58014e-54
8.88646e-55
4.98286e-55
2.78584e-55
1.55301e-55
8.63258e-56
4.78485e-56
2.64464e-56
1.45763e-56
8.01155e-57
4.39124e-57
2.40031e-57
1.30848e-57
7.11367e-58
3.85707e-58
2.08577e-58
1.12493e-58
6.05132e-59
3.2467e-59
1.73745e-59
9.27398e-60
4.93756e-60
2.62215e-60
1.38903e-60
7.33966e-61
3.86868e-61
2.03412e-61
1.0669e-61
5.58226e-62
2.91369e-62
1.51716e-62
7.88089e-63
4.084e-63
2.11138e-63
1.08899e-63
5.60355e-64
2.87668e-64
1.47337e-64
7.52888e-65
3.83843e-65
1.95248e-65
9.90907e-66
5.01763e-66
2.53507e-66
1.27793e-66
6.4278e-67
3.22593e-67
1.61544e-67
8.07187e-68
4.02448e-68
2.00218e-68
9.93935e-69
4.92355e-69
2.43371e-69
1.20042e-69
5.90848e-70
2.90202e-70
1.42237e-70
6.95688e-71
3.39555e-71
1.65388e-71
8.03899e-72
3.89945e-72
1.88763e-72
9.11886e-73
4.39625e-73
2.11517e-73
1.01562e-73
4.86681e-74
2.32749e-74
1.11088e-74
5.29156e-75
2.5156e-75
1.19355e-75
5.65186e-76
2.6711e-76
1.25992e-76
5.93137e-77
2.78693e-77
1.30695e-77
6.11729e-78
2.85777e-78
1.33251e-78
6.20134e-79
2.88058e-79
1.33553e-79
6.18035e-80
2.85469e-80
1.31611e-80
6.05647e-81
2.78189e-81
1.27544e-81
5.83684e-82
2.66624e-82
1.2157e-82
5.533e-83
2.51365e-83
1.13989e-83
5.15985e-84
2.33147e-84
1.05158e-84
4.73452e-85
2.12783e-85
9.54607e-86
4.27506e-86
1.91114e-86
8.52862e-87
3.79928e-87
1.68952e-87
7.50009e-88
3.32364e-88
1.4703e-88
6.49305e-89
2.86247e-89
1.25975e-89
5.53459e-90
2.4274e-90
1.06281e-90
4.64552e-91
2.0271e-91
8.83038e-92
3.84018e-92
1.66722e-92
7.22615e-93
3.12676e-93
1.35069e-93
5.82499e-94
2.50792e-94
1.07799e-94
4.6259e-95
1.98182e-95
8.47653e-96
3.61961e-96
1.5431e-96
6.56782e-97
2.79088e-97
1.18402e-97
5.01502e-98
2.12074e-98
8.95369e-99
3.77416e-99
1.58834e-99
6.67382e-100
2.79971e-100
1.17263e-100
4.90369e-101
2.04737e-101
8.53465e-102
3.55215e-102
1.4761e-102
6.12436e-103
2.53704e-103
1.04934e-103
4.33342e-104
1.78678e-104
7.35599e-105
3.02371e-105
1.24099e-105
5.08549e-106
2.0808e-106
8.50086e-107
3.46764e-107
1.41235e-107
5.74371e-108
2.3323e-108
9.45625e-109
3.82824e-109
1.54748e-109
6.24595e-110
2.51722e-110
1.01297e-110
4.07025e-111
1.63305e-111
6.54236e-112
2.61713e-112
1.04538e-112
4.16946e-113
1.66053e-113
6.60353e-114
2.62222e-114
1.03974e-114
4.11669e-115
1.62756e-115
6.42534e-116
2.53294e-116
9.97065e-117
3.91918e-117
1.5383e-117
6.02921e-118
2.3597e-118
9.22212e-119
3.59902e-119
1.40254e-119
5.45796e-120
2.12093e-120
8.23015e-121
3.18914e-121
1.23403e-121
4.7683e-122
1.83989e-122
7.0894e-123
2.72783e-123
1.04814e-123
4.02173e-124
1.541e-124
5.89639e-125
2.25303e-125
8.59701e-126
3.27587e-126
1.24654e-126
4.73681e-127
1.7975e-127
6.81171e-128
2.57779e-128
9.74195e-129
3.67664e-129
1.38568e-129
5.21539e-130
1.96029e-130
7.35807e-131
2.75817e-131
1.0325e-131
3.85991e-132
1.44105e-132
5.37274e-133
2.00047e-133
7.43851e-134
2.76223e-134
1.02437e-134
3.79379e-135
1.40318e-135
5.18298e-136
1.91192e-136
7.04345e-137
2.59136e-137
9.52137e-138
3.49382e-138
1.28036e-138
4.68589e-139
1.71272e-139
6.25191e-140
2.27915e-140
8.29792e-141
3.01718e-141
1.09564e-141
3.97353e-142
1.4392e-142
5.20603e-143
1.88076e-143
6.78579e-144
2.44518e-144
8.79963e-145
3.16274e-145
1.13529e-145
4.07002e-146
1.45725e-146
5.21098e-147
1.86103e-147
6.63801e-148
2.36468e-148
8.41317e-149
2.9895e-149
1.06094e-149
3.76045e-150
1.3312e-150
4.70653e-151
1.66194e-151
5.86125e-152
2.06454e-152
7.26297e-153
2.55192e-153
8.95531e-154
3.13875e-154
1.09874e-154
3.84147e-155
1.34142e-155
4.67841e-156
1.62966e-156
5.66975e-157
1.97014e-157
6.83756e-158
2.37014e-158
8.20573e-159
2.83747e-159
9.79982e-160
3.38047e-160
1.16469e-160
4.00791e-161
1.37753e-161
4.72889e-162
1.62142e-162
5.55275e-163
1.89933e-163
6.48889e-164
2.21422e-164
7.54662e-165
2.56901e-165
8.73495e-166
2.96646e-166
1.00624e-166
3.40916e-167
1.15366e-167
3.89939e-168
1.31644e-168
4.43908e-169
1.49511e-169
5.0297e-170
1.69006e-170
5.67219e-171
1.90148e-171
6.36684e-172
2.12936e-172
7.11325e-173
2.37345e-173
7.91022e-174
2.63325e-174
8.7557e-175
2.90795e-175
9.64675e-176
3.19649e-176
1.05795e-176
3.49748e-177
1.15491e-177
3.80925e-178
1.25497e-178
4.12982e-179
1.35748e-179
4.45693e-180
1.46165e-180
4.78805e-181
1.56667e-181
5.12042e-182
1.67163e-182
5.45106e-183
1.77554e-183
5.77685e-184
1.87742e-184
6.09453e-185
1.9762e-185
6.40081e-186
2.07086e-186
6.69237e-187
2.16034e-187
6.96595e-188
2.24364e-188
7.2184e-189
2.31978e-189
7.44677e-190
2.38785e-190
7.6483e-191
2.44704e-191
7.82056e-192
2.49663e-192
7.96145e-193
2.53601e-193
8.06922e-194
2.56469e-194
8.14258e-195
2.58234e-195
8.18066e-196
2.58874e-196
8.18304e-197
2.58385e-197
8.1498e-198
2.56776e-198
8.08144e-199
2.5407e-199
7.97895e-200
2.50305e-200
7.84373e-201
2.45532e-201
7.67757e-202
2.39813e-202
7.48263e-203
2.33222e-203
7.26137e-204
2.25841e-204
7.01651e-205
2.17759e-205
6.75098e-206
2.09071e-206
6.46785e-207
1.99877e-207
6.17028e-208
1.90277e-208
5.86147e-209
1.80372e-209
5.5446e-210
1.7026e-210
5.22274e-211
1.60039e-211
4.89888e-212
1.498e-212
4.57583e-213
1.39628e-213
4.25619e-214
1.29603e-214
3.94236e-215
1.19796e-215
3.63645e-216
1.10271e-216
3.34035e-217
1.01082e-217
3.05564e-218
9.22744e-219
2.78363e-219
8.38867e-220
2.52538e-220
7.59471e-221
2.28165e-221
6.84763e-222
2.05298e-222
6.14871e-223
1.83966e-223
5.49853e-224
1.64177e-224
4.89702e-225
1.45918e-225
4.34355e-226
1.29163e-226
3.83697e-227
1.13867e-227
3.37573e-228
9.99763e-229
2.95792e-229
8.74252e-230
2.58136e-230
7.61415e-231
2.24366e-231
6.60473e-232
1.9423e-232
5.70613e-233
1.67468e-233
4.91005e-234
1.43815e-234
4.20814e-235
1.2301e-235
3.59219e-236
1.04796e-236
3.0542e-237
8.89238e-238
2.58647e-238
7.51564e-239
2.18169e-239
6.32691e-240
1.83299e-240
5.30517e-241
1.53394e-241
4.4309e-242
1.27864e-242
3.68616e-243
1.06163e-243
3.05456e-244
8.78007e-245
2.52128e-245
7.23301e-246
2.07297e-246
5.9353e-247
1.69773e-247
4.85145e-248
1.38501e-248
3.95012e-249
1.1255e-249
3.20377e-250
9.11078e-251
2.58839e-251
7.34654e-252
2.08313e-252
5.90109e-253
1.67005e-253
4.72179e-254
1.33373e-254
3.76366e-255
1.06105e-255
2.98845e-256
8.40889e-257
2.36383e-257
6.63864e-258
1.86263e-258
5.22108e-259
1.46211e-259
4.09059e-260
1.14335e-260
3.19271e-261
8.90692e-262
2.48247e-262
6.9124e-263
1.92293e-263
5.34424e-264
1.48388e-264
4.11626e-265
1.14077e-265
3.15852e-266
8.73695e-267
2.41451e-267
6.66638e-268
1.83884e-268
5.06747e-269
1.39519e-269
3.83766e-270
1.05462e-270
2.89547e-271
7.94216e-272
2.17647e-272
5.95887e-273
1.62994e-273
4.45426e-274
1.21612e-274
3.31723e-275
9.04007e-276
2.46131e-276
6.69516e-277
1.81951e-277
4.94022e-278
1.3401e-278
3.63188e-279
9.83389e-280
2.66024e-280
7.18979e-281
1.9414e-281
5.23739e-282
1.41162e-282
3.80123e-283
1.02267e-283
2.74883e-284
7.38184e-285
1.98056e-285
5.30902e-286
1.42183e-286
3.80439e-287
1.01702e-287
2.71631e-288
7.24832e-289
1.93242e-289
5.14724e-290
1.36979e-290
3.64203e-291
9.67478e-292
2.56772e-292
6.80869e-293
1.8038e-293
4.77447e-294
1.26262e-294
3.33602e-295
8.80638e-296
2.32262e-296
6.12026e-297
1.61129e-297
4.2383e-298
1.11384e-298
2.9246e-299
7.67226e-300
2.01092e-300
5.26601e-301
1.37779e-301
3.60163e-302
9.40655e-303
2.45459e-303
6.39945e-304
1.66695e-304
4.33831e-305
1.12807e-305
2.93068e-306
7.6071e-307
1.97282e-307
5.11182e-308
1.32337e-308
3.42301e-309
8.84616e-310
2.28413e-310
5.8926e-311
1.51885e-311
3.9115e-312
1.00645e-312
2.58741e-313
6.64597e-314
1.70559e-314
4.37334e-315
1.12041e-315
2.86788e-316
7.33451e-317
1.87415e-317
4.7848e-318
1.22053e-318
3.11074e-319
7.92135e-320
2.01579e-320
5.12346e-321
1.29445e-321
3.26083e-322
7.90505e-323
1.4822e-323
0
0
0
0
0
0
0
0
0
0
0
0
0
0
0
0
0
0
0
0
0
0
0
0
0
0
0
0
0