# vtk DataFile Version 2.0
FlowField
ASCII
DATASET STRUCTURED_GRID
DIMENSIONS 1602 1 52
POINTS 83304 float
0 0 0
0.1 0 0
0.2 0 0
0.3 0 0
0.4 0 0
0.5 0 0
0.6 0 0
0.7 0 0
0.8 0 0
0.9 0 0
1 0 0
1.1 0 0
1.2 0 0
1.3 0 0
1.4 0 0
1.5 0 0
1.6 0 0
1.7 0 0
1.8 0 0
1.9 0 0
2 0 0
2.1 0 0
2.2 0 0
2.3 0 0
2.4 0 0
2.5 0 0
2.6 0 0
2.7 0 0
2.8 0 0
2.9 0 0
3 0 0
3.1 0 0
3.2 0 0
3.3 0 0
3.4 0 0
3.5 0 0
3.6 0 0
3.7 0 0
3.8 0 0
3.9 0 0
4 0 0
4.1 0 0
4.2 0 0
4.3 0 0
4.4 0 0
4.5 0 0
4.6 0 0
4.7 0 0
4.8 0 0
4.9 0 0
5 0 0
5.1 0 0
5.2 0 0
5.3 0 0
5.4 0 0
5.5 0 0
5.6 0 0
5.7 0 0
5.8 0 0
5.9 0 0
6 0 0
6.1 0 0
6.2 0 0
6.3 0 0
6.4 0 0
6.5 0 0
6.6 0 0
6.7 0 0
6.8 0 0
6.9 0 0
7 0 0
7.1 0 0
7.2 0 0
7.3 0 0
7.4 0 0
7.5 0 0
7.6 0 0
7.7 0 0
7.8 0 0
7.9 0 0
8 0 0
8.1 0 0
8.2 0 0
8.3 0 0
8.4 0 0
8.5 0 0
8.6 0 0
8.7 0 0
8.8 0 0
8.9 0 0
9 0 0
9.1 0 0
9.2 0 0
9.3 0 0
9.4 0 0
9.5 0 0
9.6 0 0
9.7 0 0
9.8 0 0
9.9 0 0
10 0 0
10.1 0 0
10.2 0 0
10.3 0 0
10.4 0 0
10.5 0 0
10.6 0 0
10.7 0 0
10.8 0 0
10.9 0 0
11 0 0
11.1 0 0
11.2 0 0
11.3 0 0
11.4 0 0
11.5 0 0
11.6 0 0
11.7 0 0
11.8 0 0
11.9 0 0
12 0 0
12.1 0 0
12.2 0 0
12.3 0 0
12.4 0 0
12.5 0 0
12.6 0 0
12.7 0 0
12.8 0 0
12.9 0 0
13 0 0
13.1 0 0
13.2 0 0
13.3 0 0
13.4 0 0
13.5 0 0
13.6 0 0
13.7 0 0
13.8 0 0
13.9 0 0
14 0 0
14.1 0 0
14.2 0 0
14.3 0 0
14.4 0 0
14.5 0 0
14.6 0 0
14.7 0 0
14.8 0 0
14.9 0 0
15 0 0
15.1 0 0
15.2 0 0
15.3 0 0
15.4 0 0
15.5 0 0
15.6 0 0
15.7 0 0
15.8 0 0
15.9 0 0
16 0 0
16.1 0 0
16.2 0 0
16.3 0 0
16.4 0 0
16.5 0 0
16.6 0 0
16.7 0 0
16.8 0 0
16.9 0 0
17 0 0
17.1 0 0
17.2 0 0
17.3 0 0
17.4 0 0
17.5 0 0
17.6 0 0
17.7 0 0
17.8 0 0
17.9 0 0
18 0 0
18.1 0 0
18.2 0 0
18.3 0 0
18.4 0 0
18.5 0 0
18.6 0 0
18.7 0 0
18.8 0 0
18.9 0 0
19 0 0
19.1 0 0
19.2 0 0
19.3 0 0
19.4 0 0
19.5 0 0
19.6 0 0
19.7 0 0
19.8 0 0
19.9 0 0
20 0 0
20.1 0 0
20.2 0 0
20.3 0 0
20.4 0 0
20.5 0 0
20.6 0 0
20.7 0 0
20.8 0 0
20.9 0 0
21 0 0
21.1 0 0
21.2 0 0
21.3 0 0
21.4 0 0
21.5 0 0
21.6 0 0
21.7 0 0
21.8 0 0
21.9 0 0
22 0 0
22.1 0 0
22.2 0 0
22.3 0 0
22.4 0 0
22.5 0 0
22.6 0 0
22.7 0 0
22.8 0 0
22.9 0 0
23 0 0
23.1 0 0
23.2 0 0
23.3 0 0
23.4 0 0
23.5 0 0
23.6 0 0
23.7 0 0
23.8 0 0
23.9 0 0
24 0 0
24.1 0 0
24.2 0 0
24.3 0 0
24.4 0 0
24.5 0 0
24.6 0 0
24.7 0 0
24.8 0 0
24.9 0 0
25 0 0
25.1 0 0
25.2 0 0
25.3 0 0
25.4 0 0
25.5 0 0
25.6 0 0
25.7 0 0
25.8 0 0
25.9 0 0
26 0 0
26.1 0 0
26.2 0 0
26.3 0 0
26.4 0 0
26.5 0 0
26.6 0 0
26.7 0 0
26.8 0 0
26.9 0 0
27 0 0
27.1 0 0
27.2 0 0
27.3 0 0
27.4 0 0
27.5 0 0
27.6 0 0
27.7 0 0
27.8 0 0
27.9 0 0
28 0 0
28.1 0 0
28.2 0 0
28.3 0 0
28.4 0 0
28.5 0 0
28.6 0 0
28.7 0 0
28.8 0 0
28.9 0 0
29 0 0
29.1 0 0
29.2 0 0
29.3 0 0
29.4 0 0
29.5 0 0
29.6 0 0
29.7 0 0
29.8 0 0
29.9 0 0
30 0 0
30.1 0 0
30.2 0 0
30.3 0 0
30.4 0 0
30.5 0 0
30.6 0 0
30.7 0 0
30.8 0 0
30.9 0 0
31 0 0
31.1 0 0
31.2 0 0
31.3 0 0
31.4 0 0
31.5 0 0
31.6 0 0
31.7 0 0
31.8 0 0
31.9 0 0
32 0 0
32.1 0 0
32.2 0 0
32.3 0 0
32.4 0 0
32.5 0 0
32.6 0 0
32.7 0 0
32.8 0 0
32.9 0 0
33 0 0
33.1 0 0
33.2 0 0
33.3 0 0
33.4 0 0
33.5 0 0
33.6 0 0
33.7 0 0
33.8 0 0
33.9 0 0
34 0 0
34.1 0 0
34.2 0 0
34.3 0 0
34.4 0 0
34.5 0 0
34.6 0 0
34.7 0 0
34.8 0 0
34.9 0 0
35 0 0
35.1 0 0
35.2 0 0
35.3 0 0
35.4 0 0
35.5 0 0
35.6 0 0
35.7 0 0
35.8 0 0
35.9 0 0
36 0 0
36.1 0 0
36.2 0 0
36.3 0 0
36.4 0 0
36.5 0 0
36.6 0 0
36.7 0 0
36.8 0 0
36.9 0 0
37 0 0
37.1 0 0
37.2 0 0
37.3 0 0
37.4 0 0
37.5 0 0
37.6 0 0
37.7 0 0
37.8 0 0
37.9 0 0
38 0 0
38.1 0 0
38.2 0 0
38.3 0 0
38.4 0 0
38.5 0 0
38.6 0 0
38.7 0 0
38.8 0 0
38.9 0 0
39 0 0
39.1 0 0
39.2 0 0
39.3 0 0
39.4 0 0
39.5 0 0
39.6 0 0
39.7 0 0
39.8 0 0
39.9 0 0
40 0 0
40.1 0 0
40.2 0 0
40.3 0 0
40.4 0 0
40.5 0 0
40.6 0 0
40.7 0 0
40.8 0 0
40.9 0 0
41 0 0
41.1 0 0
41.2 0 0
41.3 0 0
41.4 0 0
41.5 0 0
41.6 0 0
41.7 0 0
41.8 0 0
41.9 0 0
42 0 0
42.1 0 0
42.2 0 0
42.3 0 0
42.4 0 0
42.5 0 0
42.6 0 0
42.7 0 0
42.8 0 0
42.9 0 0
43 0 0
43.1 0 0
43.2 0 0
43.3 0 0
43.4 0 0
43.5 0 0
43.6 0 0
43.7 0 0
43.8 0 0
43.9 0 0
44 0 0
44.1 0 0
44.2 0 0
44.3 0 0
44.4 0 0
44.5 0 0
44.6 0 0
44.7 0 0
44.8 0 0
44.9 0 0
45 0 0
45.1 0 0
45.2 0 0
45.3 0 0
45.4 0 0
45.5 0 0
45.6 0 0
45.7 0 0
45.8 0 0
45.9 0 0
46 0 0
46.1 0 0
46.2 0 0
46.3 0 0
46.4 0 0
46.5 0 0
46.6 0 0
46.7 0 0
46.8 0 0
46.9 0 0
47 0 0
47.1 0 0
47.2 0 0
47.3 0 0
47.4 0 0
47.5 0 0
47.6 0 0
47.7 0 0
47.8 0 0
47.9 0 0
48 0 0
48.1 0 0
48.2 0 0
48.3 0 0
48.4 0 0
48.5 0 0
48.6 0 0
48.7 0 0
48.8 0 0
48.9 0 0
49 0 0
49.1 0 0
49.2 0 0
49.3 0 0
49.4 0 0
49.5 0 0
49.6 0 0
49.7 0 0
49.8 0 0
49.9 0 0
50 0 0
50.1 0 0
50.2 0 0
50.3 0 0
50.4 0 0
50.5 0 0
50.6 0 0
50.7 0 0
50.8 0 0
50.9 0 0
51 0 0
51.1 0 0
51.2 0 0
51.3 0 0
51.4 0 0
51.5 0 0
51.6 0 0
51.7 0 0
51.8 0 0
51.9 0 0
52 0 0
52.1 0 0
52.2 0 0
52.3 0 0
52.4 0 0
52.5 0 0
52.6 0 0
52.7 0 0
52.8 0 0
52.9 0 0
53 0 0
53.1 0 0
53.2 0 0
53.3 0 0
53.4 0 0
53.5 0 0
53.6 0 0
53.7 0 0
53.8 0 0
53.9 0 0
54 0 0
54.1 0 0
54.2 0 0
54.3 0 0
54.4 0 0
54.5 0 0
54.6 0 0
54.7 0 0
54.8 0 0
54.9 0 0
55 0 0
55.1 0 0
55.2 0 0
55.3 0 0
55.4 0 0
55.5 0 0
55.6 0 0
55.7 0 0
55.8 0 0
55.9 0 0
56 0 0
56.1 0 0
56.2 0 0
56.3 0 0
56.4 0 0
56.5 0 0
56.6 0 0
56.7 0 0
56.8 0 0
56.9 0 0
57 0 0
57.1 0 0
57.2 0 0
57.3 0 0
57.4 0 0
57.5 0 0
57.6 0 0
57.7 0 0
57.8 0 0
57.9 0 0
58 0 0
58.1 0 0
58.2 0 0
58.3 0 0
58.4 0 0
58.5 0 0
58.6 0 0
58.7 0 0
58.8 0 0
58.9 0 0
59 0 0
59.1 0 0
59.2 0 0
59.3 0 0
59.4 0 0
59.5 0 0
59.6 0 0
59.7 0 0
59.8 0 0
59.9 0 0
60 0 0
60.1 0 0
60.2 0 0
60.3 0 0
60.4 0 0
60.5 0 0
60.6 0 0
60.7 0 0
60.8 0 0
60.9 0 0
61 0 0
61.1 0 0
61.2 0 0
61.3 0 0
61.4 0 0
61.5 0 0
61.6 0 0
61.7 0 0
61.8 0 0
61.9 0 0
62 0 0
62.1 0 0
62.2 0 0
62.3 0 0
62.4 0 0
62.5 0 0
62.6 0 0
62.7 0 0
62.8 0 0
62.9 0 0
63 0 0
63.1 0 0
63.2 0 0
63.3 0 0
63.4 0 0
63.5 0 0
63.6 0 0
63.7 0 0
63.8 0 0
63.9 0 0
64 0 0
64.1 0 0
64.2 0 0
64.3 0 0
64.4 0 0
64.5 0 0
64.6 0 0
64.7 0 0
64.8 0 0
64.9 0 0
65 0 0
65.1 0 0
65.2 0 0
65.3 0 0
65.4 0 0
65.5 0 0
65.6 0 0
65.7 0 0
65.8 0 0
65.9 0 0
66 0 0
66.1 0 0
66.2 0 0
66.3 0 0
66.4 0 0
66.5 0 0
66.6 0 0
66.7 0 0
66.8 0 0
66.9 0 0
67 0 0
67.1 0 0
67.2 0 0
67.3 0 0
67.4 0 0
67.5 0 0
67.6 0 0
67.7 0 0
67.8 0 0
67.9 0 0
68 0 0
68.1 0 0
68.2 0 0
68.3 0 0
68.4 0 0
68.5 0 0
68.6 0 0
68.7 0 0
68.8 0 0
68.9 0 0
69 0 0
69.1 0 0
69.2 0 0
69.3 0 0
69.4 0 0
69.5 0 0
69.6 0 0
69.7 0 0
69.8 0 0
69.9 0 0
70 0 0
70.1 0 0
70.2 0 0
70.3 0 0
70.4 0 0
70.5 0 0
70.6 0 0
70.7 0 0
70.8 0 0
70.9 0 0
71 0 0
71.1 0 0
71.2 0 0
71.3 0 0
71.4 0 0
71.5 0 0
71.6 0 0
71.7 0 0
71.8 0 0
71.9 0 0
72 0 0
72.1 0 0
72.2 0 0
72.3 0 0
72.4 0 0
72.5 0 0
72.6 0 0
72.7 0 0
72.8 0 0
72.9 0 0
73 0 0
73.1 0 0
73.2 0 0
73.3 0 0
73.4 0 0
73.5 0 0
73.6 0 0
73.7 0 0
73.8 0 0
73.9 0 0
74 0 0
74.1 0 0
74.2 0 0
74.3 0 0
74.4 0 0
74.5 0 0
74.6 0 0
74.7 0 0
74.8 0 0
74.9 0 0
75 0 0
75.1 0 0
75.2 0 0
75.3 0 0
75.4 0 0
75.5 0 0
75.6 0 0
75.7 0 0
75.8 0 0
75.9 0 0
76 0 0
76.1 0 0
76.2 0 0
76.3 0 0
76.4 0 0
76.5 0 0
76.6 0 0
76.7 0 0
76.8 0 0
76.9 0 0
77 0 0
77.1 0 0
77.2 0 0
77.3 0 0
77.4 0 0
77.5 0 0
77.6 0 0
77.7 0 0
77.8 0 0
77.9 0 0
78 0 0
78.1 0 0
78.2 0 0
78.3 0 0
78.4 0 0
78.5 0 0
78.6 0 0
78.7 0 0
78.8 0 0
78.9 0 0
79 0 0
79.1 0 0
79.2 0 0
79.3 0 0
79.4 0 0
79.5 0 0
79.6 0 0
79.7 0 0
79.8 0 0
79.9 0 0
80 0 0
80.1 0 0
80.2 0 0
80.3 0 0
80.4 0 0
80.5 0 0
80.6 0 0
80.7 0 0
80.8 0 0
80.9 0 0
81 0 0
81.1 0 0
81.2 0 0
81.3 0 0
81.4 0 0
81.5 0 0
81.6 0 0
81.7 0 0
81.8 0 0
81.9 0 0
82 0 0
82.1 0 0
82.2 0 0
82.3 0 0
82.4 0 0
82.5 0 0
82.6 0 0
82.7 0 0
82.8 0 0
82.9 0 0
83 0 0
83.1 0 0
83.2 0 0
83.3 0 0
83.4 0 0
83.5 0 0
83.6 0 0
83.7 0 0
83.8 0 0
83.9 0 0
84 0 0
84.1 0 0
84.2 0 0
84.3 0 0
84.4 0 0
84.5 0 0
84.6 0 0
84.7 0 0
84.8 0 0
84.9 0 0
85 0 0
85.1 0 0
85.2 0 0
85.3 0 0
85.4 0 0
85.5 0 0
85.6 0 0
85.7 0 0
85.8 0 0
85.9 0 0
86 0 0
86.1 0 0
86.2 0 0
86.3 0 0
86.4 0 0
86.5 0 0
86.6 0 0
86.7 0 0
86.8 0 0
86.9 0 0
87 0 0
87.1 0 0
87.2 0 0
87.3 0 0
87.4 0 0
87.5 0 0
87.6 0 0
87.7 0 0
87.8 0 0
87.9 0 0
88 0 0
88.1 0 0
88.2 0 0
88.3 0 0
88.4 0 0
88.5 0 0
88.6 0 0
88.7 0 0
88.8 0 0
88.9 0 0
89 0 0
89.1 0 0
89.2 0 0
89.3 0 0
89.4 0 0
89.5 0 0
89.6 0 0
89.7 0 0
89.8 0 0
89.9 0 0
90 0 0
90.1 0 0
90.2 0 0
90.3 0 0
90.4 0 0
90.5 0 0
90.6 0 0
90.7 0 0
90.8 0 0
90.9 0 0
91 0 0
91.1 0 0
91.2 0 0
91.3 0 0
91.4 0 0
91.5 0 0
91.6 0 0
91.7 0 0
91.8 0 0
91.9 0 0
92 0 0
92.1 0 0
92.2 0 0
92.3 0 0
92.4 0 0
92.5 0 0
92.6 0 0
92.7 0 0
92.8 0 0
92.9 0 0
93 0 0
93.1 0 0
93.2 0 0
93.3 0 0
93.4 0 0
93.5 0 0
93.6 0 0
93.7 0 0
93.8 0 0
93.9 0 0
94 0 0
94.1 0 0
94.2 0 0
94.3 0 0
94.4 0 0
94.5 0 0
94.6 0 0
94.7 0 0
94.8 0 0
94.9 0 0
95 0 0
95.1 0 0
95.2 0 0
95.3 0 0
95.4 0 0
95.5 0 0
95.6 0 0
95.7 0 0
95.8 0 0
95.9 0 0
96 0 0
96.1 0 0
96.2 0 0
96.3 0 0
96.4 0 0
96.5 0 0
96.6 0 0
96.7 0 0
96.8 0 0
96.9 0 0
97 0 0
97.1 0 0
97.2 0 0
97.3 0 0
97.4 0 0
97.5 0 0
97.6 0 0
97.7 0 0
97.8 0 0
97.9 0 0
98 0 0
98.1 0 0
98.2 0 0
98.3 0 0
98.4 0 0
98.5 0 0
98.6 0 0
98.7 0 0
98.8 0 0
98.9 0 0
99 0 0
99.1 0 0
99.2 0 0
99.3 0 0
99.4 0 0
99.5 0 0
99.6 0 0
99.7 0 0
99.8 0 0
99.9 0 0
100 0 0
100.1 0 0
100.2 0 0
100.3 0 0
100.4 0 0
100.5 0 0
100.6 0 0
100.7 0 0
100.8 0 0
100.9 0 0
101 0 0
101.1 0 0
101.2 0 0
101.3 0 0
101.4 0 0
101.5 0 0
101.6 0 0
101.7 0 0
101.8 0 0
101.9 0 0
102 0 0
102.1 0 0
102.2 0 0
102.3 0 0
102.4 0 0
102.5 0 0
102.6 0 0
102.7 0 0
102.8 0 0
102.9 0 0
103 0 0
103.1 0 0
103.2 0 0
103.3 0 0
103.4 0 0
103.5 0 0
103.6 0 0
103.7 0 0
103.8 0 0
103.9 0 0
104 0 0
104.1 0 0
104.2 0 0
104.3 0 0
104.4 0 0
104.5 0 0
104.6 0 0
104.7 0 0
104.8 0 0
104.9 0 0
105 0 0
105.1 0 0
105.2 0 0
105.3 0 0
105.4 0 0
105.5 0 0
105.6 0 0
105.7 0 0
105.8 0 0
105.9 0 0
106 0 0
106.1 0 0
106.2 0 0
106.3 0 0
106.4 0 0
106.5 0 0
106.6 0 0
106.7 0 0
106.8 0 0
106.9 0 0
107 0 0
107.1 0 0
107.2 0 0
107.3 0 0
107.4 0 0
107.5 0 0
107.6 0 0
107.7 0 0
107.8 0 0
107.9 0 0
108 0 0
108.1 0 0
108.2 0 0
108.3 0 0
108.4 0 0
108.5 0 0
108.6 0 0
108.7 0 0
108.8 0 0
108.9 0 0
109 0 0
109.1 0 0
109.2 0 0
109.3 0 0
109.4 0 0
109.5 0 0
109.6 0 0
109.7 0 0
109.8 0 0
109.9 0 0
110 0 0
110.1 0 0
110.2 0 0
110.3 0 0
110.4 0 0
110.5 0 0
110.6 0 0
110.7 0 0
110.8 0 0
110.9 0 0
111 0 0
111.1 0 0
111.2 0 0
111.3 0 0
111.4 0 0
111.5 0 0
111.6 0 0
111.7 0 0
111.8 0 0
111.9 0 0
112 0 0
[...]
POINT_DATA 83304

SCALARS pressure float 1
LOOKUP_TABLE default
0
0
0
0
0
0
0
0
0
0
0
0
0
0
0
0
0
0
0
0
0
0
0
0
0
0
0
0
0
0
0
0
0
0
0
0
0
0
0
0
0
0
0
0
0
0
0
0
0
0
0
0
0
0
0
0
0
0
0
0
0
0
0
0
0
0
0
0
0
0
0
0
0
0
0
0
0
0
0
0
0
0
0
0
0
0
0
0
0
0
0
0
0
0
0
0
0
0
0
0
0
0
0
0
0
0
0
0
0
0
0
0
0
0
0
0
0
0
0
0
0
0
0
0
0
0
0
0
0
0
0
0
0
0
0
0
0
0
0
0
0
0
0
0
0
0
0
0
0
0
0
0
0
0
0
0
0
0
0
0
0
0
0
0
0
0
0
0
0
0
0
0
0
0
0
0
0
0
0
0
0
0
0
0
0
0
0
0
0
0
0
0
0
0
0
0
0
0
0
0
0
0
0
0
0
0
0
0
0
0
0
0
0
0
0
0
0
0
0
0
0
0
0
0
0
0
0
0
0
0
0
0
0
0
0
0
0
0
0
0
0
0
0
0
0
0
0
0
0
0
0
0
0
0
0
0
0
0
0
0
0
0
0
0
0
0
0
0
0
0
0
0
0
0
0
0
0
0
0
0
0
0
0
0
0
0
0
0
0
0
0
0
0
0
0
0
0
0
0
0
0
0
0
0
0
0
0
0
0
0
0
0
0
0
0
0
0
0
0
0
0
0
0
0
0
0
0
0
0
0
0
0
0
0
0
0
0
0
0
0
0
0
0
0
0
0
0
0
0
0
0
0
0
0
0
0
0
0
0
0
0
0
0
0
0
0
0
0
0
0
0
0
0
0
0
0
0
0
0
0
0
0
0
0
0
0
0
0
0
0
0
0
0
0
0
0
0
0
0
0
0
0
0
0
0
0
0
0
0
0
0
0
0
0
0
0
0
0
0
0
0
0
0
0
0
0
0
0
0
0
0
0
0
0
0
0
0
0
0
0
0
0
0
0
0
0
0
0
0
0
0
0
0
0
0
0
0
0
0
0
0
0
0
0
0
0
0
0
0
0
0
0
0
0
0
0
0
0
0
0
0
0
0
0
0
0
0
0
0
0
0
0
0
0
0
0
0
0
0
0
0
0
0
0
0
0
0
0
0
0
0
0
0
0
0
0
0
0
0
0
0
0
0
0
0
0
0
0
0
0
0
0
0
0
0
0
0
0
0
0
0
0
0
0
0
0
0
0
0
0
0
0
0
0
0
0
0
0
0
0
0
0
0
0
0
0
0
0
0
0
0
0
0
0
0
0
0
0
0
0
0
0
0
0
0
0
0
0
0
0
0
0
0
0
0
0
0
0
0
0
0
0
0
0
0
0
0
0
0
0
0
0
0
0
0
0
0
0
0
0
0
0
0
0
0
0
0
0
0
0
0
0
0
0
0
0
0
0
0
0
0
0
0
0
0
0
0
0
0
0
0
0
0
0
0
0
0
0
0
0
0
0
0
0
0
0
0
0
0
0
0
0
0
0
0
0
0
0
0
0
0
0
0
0
0
0
0
0
0
0
0
0
0
0
0
0
0
0
0
0
0
0
0
0
0
0
0
0
0
0
0
0
0
0
0
0
0
0
0
0
0
0
0
0
0
0
0
0
0
0
0
0
0
0
0
0
0
0
0
0
0
0
0
0
0
0
0
0
0
0
0
0
0
0
0
0
0
0
0
0
0
0
0
0
0
0
0
0
0
0
0
0
0
0
0
0
0
0
0
0
0
0
0
0
0
0
0
0
0
0
0
0
0
0
0
0
0
0
0
0
0
0
0
0
0
0
0
0
0
0
0
0
0
0
0
0
0
0
0
0
0
0
0
0
0
0
0
0
0
0
0
0
0
0
0
0
0
0
0
0
0
0
0
0
0
0
0
0
0
0
0
0
0
0
0
0
0
0
0
0
0
0
0
0
0
0
0
0
0
0
0
0
0
0
0
0
0
0
0
0
0
0
0
0
0
0
0
0
0
0
0
0
0
0
0
0
0
0
0
0
0
0
0
0
0
0
0
0
0
0
0
0
0
0
0
0
0
0
0
0
0
0
0
0
0
0
0
0
0
0
0
0
0
0
0
0
0
0
0
0
0
0
0
0
0
0
0
0
0
0
0
0
0
0
0
0
0
0
0
0
0
0
0
0
0
0
0
0
0
0
0
0
0
0
0
0
0
0
0
0
0
0
0
0
0
0
0
0
0
0
0
0
0
0
0
0
0
0
0
0
0
0
0
0
0
0
0
0
0
0
0
0
0
0
0
0
0
0
0
0
0
0
0
0
0
0
0
0
0
0
0
0
0
0
0
0
0
0
0
0
0
0
0
0
0
0
0
0
0
0
0
0
0
0
0
0
0
0
0
0
0
0
0
0
0
0
0
0
0
0
0
0
0
0
0
0
0
0
0
0
0
0
0
0
0
0
0
0
0
0
0
0
0
0
0
0
0
0
0
0
0
0
0
0
0
0
0
0
0
0
0
0
0
0
0
0
0
0
0
0
0
0
0
0
0
0
0
0
0
0
0
0
0
0
0
0
0
0
0
0
0
0
0
0
0
0
0
0
0
0
0
0
0
0
0
0
0
0
0
0
0
0
0
0
0
0
0
0
0
0
0
0
0
0
0
0
0
0
0
0
0
0
0
0
0
0
0
0
0
0
0
0
0
0
0
0
0
0
0
0
0
0
0
0
0
0
0
0
0
0
0
0
0
0
0
0
0
0
0
0
0
0
0
0
0
0
0
0
0
0
0
0
0
0
0
0
0
0
0
0
0
0
0
0
0
0
0
0
0
0
0
0
0
0
0
0
0
0
0
0
0
0
0
0
0
0
0
0
0
0
0
0
0
0
0
0
0
0
0
0
0
0
0
0
0
0
0
0
0
0
0
0
0
0
0
0
0
0
0
0
0
0
0
0
0
0
0
0
0
0
0
0
0
0
0
0
0
0
0
0
0
0
0
0
0
0
0
0
0
0
0
0
0
0
0
0
0
0
0
0
0
0
0
0
0
0
0
0
0
0
0
0
0
0
0
0
0
0
0
0
0
0
0
0
0
0
0
0
0
0
0
0
0
0
0
0
0
0
0
0
0
0
0
0
0
0
0
0
0
0
0
0
0
0
0
0
0
0
0
0
0
0
0
0
0
0
0
0
0
0
0
0
0
0
0
0
0
0
0
0
0
0
0
0
0
0
0
0
0
0
0
0
0
0
0
0
0
0
0
0
0
0
0
0
0
0
0
0
0
0
0
0
0
0
0
0
0
0
0
0
0
0
0
0
0
0
0
0
0
0
0
0
0
0
0
0
0
0
0
0
0
0
0
0
0
0
0
0
0
0
0
0
0
0
0
0
0
0
0
0
0
0
0
0
0
0
0
0
0
0
0
0
0
0
0
0
0
0
0
0
0
0
0
0
0
0
0
0
0
0
0
0
0
0
0
0
0
0
0
0
0
0
0
0
0
0
0
0
0
0
0
0
0
0
0
0
0
0
0
0
0
0
0
0
0
0
0
0
0
0
0
0
0
0
0
0
0
0
0
0
0
0
0
0
0
0
0
0
0
0
0
0
0
0
0
0
0
0
0
0
0
0
0
0.0776415
0.052903
0.0436505
0.0357426
0.03048
0.0271088
0.0248019
0.0231159
0.0218007
0.0207277
0.0198234
0.0190436
0.0183596
0.0177518
0.0172065
0.0167132
0.0162641
0.0158529
0.0154745
0.0151249
0.0148005
0.0144984
0.0142161
0.0139516
0.0137028
0.0134681
0.0132461
0.0130354
0.0128347
0.0126431
0.0124594
0.012283
0.0121133
0.0119502
0.0117938
0.0116454
0.0115067
0.0113806
0.0112712
0.0111835
0.0111234
0.0110968
0.011109
0.0111631
0.0112581
0.0113871
0.0115352
0.0116771
0.0117758
0.0117824
0.0116367
0.0112715
0.0106183
0.00961772
0.0082328
0.00646401
0.00436591
0.00206042
-0.000257273
-0.00232502
-0.00384248
-0.00451354
-0.00408584
-0.00238573
0.000663345
0.00504607
0.0106647
0.01736
0.0249385
0.033189
0.0418999
0.0508621
0.0598806
0.068771
0.0773552
0.0854585
0.0928956
0.0994927
0.105105
0.109605
0.112869
0.114783
0.115277
0.114343
0.112034
0.108459
0.103769
0.0981561
0.0918386
0.0850507
0.0780241
0.0709698
0.0640647
0.0574459
0.0512102
0.0454189
0.0401041
0.0352747
0.0309229
0.0270288
0.0235651
0.0204997
0.0177987
0.0154274
0.0133524
0.0115414
0.0099648
0.00859492
0.0074068
0.00637792
0.00548812
0.00471951
0.00405625
0.00348443
0.00299184
0.00256779
0.00220298
0.0018893
0.00161974
0.00138819
0.00118937
0.00101873
0.000872322
0.00074675
0.000639082
0.000546793
0.00046771
0.00039996
0.000341937
0.000292256
0.000249728
0.000213334
0.000182196
0.000155562
0.000132786
0.000113314
9.66713e-05
8.24504e-05
7.03026e-05
5.99286e-05
5.10718e-05
4.35121e-05
3.70615e-05
3.15592e-05
2.6868e-05
2.287e-05
1.94634e-05
1.65601e-05
1.40838e-05
1.197e-05
1.01652e-05
8.62503e-06
7.31228e-06
6.19381e-06
5.23892e-06
4.41963e-06
3.71314e-06
3.10487e-06
2.59008e-06
2.17175e-06
1.85443e-06
1.6358e-06
1.49938e-06
1.41229e-06
1.33024e-06
1.20908e-06
1.01907e-06
7.566e-07
4.48134e-07
1.44032e-07
-9.63617e-08
-2.23677e-07
-2.15068e-07
-8.26523e-08
1.29067e-07
3.55852e-07
5.32196e-07
6.09566e-07
5.68809e-07
4.2334e-07
2.12882e-07
-9.5589e-09
-1.93013e-07
-3.0156e-07
-3.21663e-07
-2.62577e-07
-1.50734e-07
-2.05703e-08
9.51733e-08
1.73025e-07
2.0265e-07
1.86729e-07
1.37679e-07
7.27126e-08
8.81517e-09
-4.10825e-08
-7.00895e-08
-7.74511e-08
-6.72005e-08
-4.60534e-08
-2.12399e-08
1.20194e-09
1.73991e-08
2.58644e-08
2.71283e-08
2.3036e-08
1.59687e-08
8.18372e-09
1.38582e-09
-3.45039e-09
-6.04662e-09
-6.65187e-09
-5.81892e-09
-4.19239e-09
-2.34951e-09
-7.09277e-10
4.9472e-10
1.19446e-09
1.44149e-09
1.35373e-09
1.06846e-09
7.08897e-10
3.66027e-10
9.35345e-11
-8.80716e-11
-1.82533e-10
-2.07734e-10
-1.86858e-10
-1.42044e-10
-9.07666e-11
-4.45513e-11
-9.31634e-12
1.3387e-11
2.48425e-11
2.77558e-11
2.51762e-11
1.98121e-11
1.36999e-11
8.13562e-12
3.76914e-12
7.71684e-13
-9.8481e-13
-1.77479e-12
-1.90818e-12
-1.66271e-12
-1.25205e-12
-8.193e-13
-4.45434e-13
-1.64424e-13
2.06574e-14
1.23792e-13
1.65759e-13
1.67541e-13
1.46803e-13
1.16583e-13
8.53695e-14
5.78909e-14
3.61405e-14
2.03563e-14
9.81413e-15
3.39229e-15
-7.19491e-17
-1.59167e-15
-1.95481e-15
-1.71964e-15
-1.24711e-15
-7.46806e-16
-3.22687e-16
-1.16503e-17
1.87376e-16
2.93482e-16
3.31354e-16
3.24446e-16
2.91882e-16
2.47655e-16
2.01039e-16
1.5752e-16
1.19829e-16
8.88717e-17
6.44581e-17
4.58272e-17
3.19969e-17
2.19724e-17
1.48583e-17
9.90433e-18
6.51366e-18
4.22955e-18
2.71339e-18
1.72078e-18
1.07933e-18
6.69868e-19
4.11533e-19
2.50356e-19
1.50866e-19
9.00805e-20
5.33086e-20
3.12751e-20
1.81943e-20
1.04979e-20
6.00869e-21
3.41235e-21
1.92308e-21
1.07567e-21
5.97268e-22
3.29251e-22
1.80224e-22
9.79672e-23
5.28913e-23
2.83643e-23
1.5111e-23
7.99823e-24
4.20644e-24
2.19836e-24
1.14178e-24
5.89398e-25
3.02419e-25
1.54249e-25
7.82126e-26
3.94284e-26
1.97628e-26
9.84971e-27
4.88163e-27
2.40602e-27
1.17938e-27
5.74986e-28
2.78824e-28
1.34493e-28
6.45339e-29
3.08048e-29
1.4629e-29
6.91188e-30
3.24926e-30
1.51985e-30
7.07401e-31
3.2764e-31
1.51013e-31
6.92682e-32
3.16211e-32
1.43667e-32
6.49676e-33
2.92421e-33
1.31011e-33
5.84271e-34
2.59383e-34
1.14631e-34
5.04331e-35
2.20899e-35
9.63277e-36
4.18217e-36
1.80784e-36
7.78103e-37
3.33463e-37
1.423e-37
6.04673e-38
2.55863e-38
1.07815e-38
4.52421e-39
1.89067e-39
7.86873e-40
3.26155e-40
1.34643e-40
5.53598e-41
2.26709e-41
9.24727e-42
3.757e-42
1.52042e-42
6.12896e-43
2.46107e-43
9.84425e-44
3.9226e-44
1.55706e-44
6.15727e-45
2.42566e-45
9.52009e-46
3.72245e-46
1.45012e-46
5.62822e-47
2.17642e-47
8.3854e-48
3.21903e-48
1.23127e-48
4.69266e-49
1.78208e-49
6.74349e-50
2.54274e-50
9.554e-51
3.57719e-51
1.33469e-51
4.96255e-52
1.83876e-52
6.78968e-53
2.49852e-53
9.16286e-54
3.3489e-54
1.21984e-54
4.42835e-55
1.60222e-55
5.77766e-56
2.07653e-56
7.43849e-57
2.65583e-57
9.45127e-58
3.35244e-58
1.18527e-58
4.17703e-59
1.46729e-59
5.13768e-60
1.7932e-60
6.23888e-61
2.16374e-61
7.48051e-62
2.57804e-62
8.85697e-63
3.03336e-63
1.03565e-63
3.52495e-64
1.19606e-64
4.04592e-65
1.36443e-65
4.58732e-66
1.53761e-66
5.13829e-67
1.71191e-67
5.68638e-68
1.88317e-68
6.21796e-69
2.04698e-69
6.71884e-70
2.19883e-70
7.17482e-71
2.33431e-71
7.57244e-72
2.44934e-72
7.89957e-73
2.5404e-73
8.14611e-74
2.60466e-74
8.30443e-75
2.64016e-75
8.36982e-76
2.6459e-76
8.34071e-77
2.62188e-77
8.2187e-78
2.5691e-78
8.00845e-79
2.48949e-79
7.71739e-80
2.38579e-80
7.35529e-81
2.2614e-81
6.93375e-82
2.1202e-82
6.46554e-83
1.96634e-83
5.96402e-84
1.80406e-84
5.44252e-85
1.63752e-85
4.91379e-86
1.47059e-86
4.38952e-87
1.30676e-87
3.87997e-88
1.14901e-88
3.39374e-89
9.99773e-90
2.93761e-90
8.60913e-91
2.51652e-91
7.33706e-92
2.13366e-92
6.18893e-93
1.79058e-93
5.16731e-94
1.48741e-94
4.27066e-95
1.2231e-95
3.49406e-96
9.95654e-97
2.83007e-97
8.02413e-98
2.26943e-98
6.40256e-99
1.80183e-99
5.05823e-100
1.41648e-100
3.95691e-101
1.10264e-101
3.06513e-102
8.49968e-103
2.35125e-103
6.48843e-104
1.78619e-104
4.90533e-105
1.34388e-105
3.6729e-106
1.00142e-106
2.72385e-107
7.39121e-108
2.00085e-108
5.40357e-109
1.45586e-109
3.91321e-110
1.04936e-110
2.80732e-111
7.49277e-112
1.99516e-112
5.30029e-113
1.40479e-113
3.71461e-114
9.79965e-115
2.57931e-115
6.77324e-116
1.77456e-116
4.63861e-117
1.20974e-117
3.14778e-118
8.17198e-119
2.11672e-119
5.47035e-120
1.41054e-120
3.62889e-121
9.31507e-122
2.38574e-122
6.09657e-123
1.55445e-123
3.95459e-124
1.00382e-124
2.54244e-125
6.42511e-126
1.62013e-126
4.07627e-127
1.02334e-127
2.56344e-128
6.40729e-129
1.598e-129
3.97678e-130
9.8751e-131
2.44685e-131
6.0497e-132
1.49252e-132
3.67426e-133
9.02576e-134
2.21241e-134
5.41148e-135
1.3208e-135
3.21686e-136
7.81811e-137
1.89604e-137
4.58853e-138
1.1081e-138
2.67036e-139
6.4216e-140
1.541e-140
3.69022e-141
8.81843e-142
2.10292e-142
5.00436e-143
1.18842e-143
2.81637e-144
6.66052e-145
1.57191e-145
3.70214e-146
8.70125e-147
2.04088e-147
4.77708e-148
1.11588e-148
2.60127e-149
6.05155e-150
1.40496e-150
3.25521e-151
7.52685e-152
1.73687e-152
3.99987e-153
9.19282e-154
2.10852e-154
4.82652e-155
1.10261e-155
2.51384e-156
5.71989e-157
1.29889e-157
2.9437e-158
6.65815e-159
1.50298e-159
3.38604e-160
7.61333e-161
1.70845e-161
3.82626e-162
8.55255e-163
1.90794e-163
4.24802e-164
9.43974e-165
2.09357e-165
4.63415e-166
1.02379e-166
2.2574e-167
4.96784e-168
1.09116e-168
2.39206e-169
5.23385e-170
1.14297e-170
2.49126e-171
5.41966e-172
1.17678e-172
2.5503e-173
5.51645e-174
1.19098e-174
2.56641e-175
5.51983e-176
1.18496e-176
2.53902e-177
5.43012e-178
1.15914e-178
2.46973e-179
5.2523e-180
1.1149e-180
2.36219e-181
4.99556e-182
1.0545e-182
2.22178e-183
4.67253e-184
9.80844e-185
2.05516e-185
4.29824e-186
8.97299e-187
1.86976e-187
3.889e-188
8.07411e-189
1.67324e-189
3.46121e-190
7.14674e-191
1.47298e-191
3.0304e-192
6.22321e-193
1.27568e-193
2.61028e-194
5.3315e-195
1.087e-195
2.21221e-196
4.49414e-197
9.11357e-198
1.84482e-198
3.72772e-199
7.51897e-200
1.51391e-200
3.04278e-201
6.1048e-202
1.22265e-202
2.44436e-203
4.87823e-204
9.71837e-205
1.93268e-205
3.83676e-206
7.60337e-207
1.50414e-207
2.97037e-208
5.85563e-209
1.15234e-209
2.26377e-210
4.43945e-211
8.69104e-212
1.69849e-212
3.31362e-213
6.45347e-214
1.25468e-214
2.43516e-215
4.71819e-216
9.12595e-217
1.76212e-217
3.39665e-218
6.53619e-219
1.25562e-219
2.40797e-220
4.61005e-221
8.81096e-222
1.68114e-222
3.20222e-223
6.08924e-224
1.15596e-224
2.19074e-225
4.14484e-226
7.8288e-227
1.47623e-227
2.77899e-228
5.22266e-229
9.79878e-230
1.83539e-230
3.43211e-231
6.40727e-232
1.19416e-232
2.22195e-233
4.12748e-234
7.65454e-235
1.41722e-235
2.61961e-236
4.8342e-237
8.9063e-238
1.63817e-238
3.0082e-239
5.51501e-240
1.00943e-240
1.84457e-241
3.36519e-242
6.12937e-243
1.1146e-243
2.02355e-244
3.66782e-245
6.63742e-246
1.19919e-246
2.16311e-247
3.89554e-248
7.00421e-249
1.25734e-249
2.25346e-250
4.0323e-251
7.20377e-252
1.28491e-252
2.2882e-253
4.0684e-254
7.22208e-255
1.28e-255
2.26501e-256
4.00169e-257
7.05876e-258
1.24316e-258
2.18596e-259
3.8377e-260
6.72695e-261
1.17729e-261
2.05715e-262
3.58896e-263
6.25162e-264
1.08727e-264
1.88801e-265
3.27336e-266
5.66642e-267
9.79373e-268
1.69011e-268
2.9121e-269
5.00987e-270
8.60547e-271
1.47589e-271
2.52733e-272
4.32117e-273
7.37689e-274
1.25742e-274
2.14002e-275
3.63657e-276
6.17022e-277
1.04531e-277
1.7682e-278
2.98643e-279
5.03631e-280
8.48035e-281
1.42579e-281
2.39353e-282
4.01203e-283
6.7148e-284
1.12214e-284
1.87243e-285
3.11967e-286
5.18991e-287
8.62101e-288
1.4299e-288
2.3681e-289
3.91603e-290
6.46611e-291
1.06608e-291
1.75506e-292
2.885e-293
4.73538e-294
7.761e-295
1.2701e-295
2.07545e-296
3.38645e-297
5.5174e-298
8.97603e-299
1.45812e-299
2.36517e-300
3.83084e-301
6.19565e-302
1.00056e-302
1.61347e-303
2.59804e-304
4.17729e-305
6.7067e-306
1.0752e-306
1.72123e-307
2.75142e-308
4.3918e-309
7e-310
1.1141e-310
1.77061e-311
2.8099e-312
4.45281e-313
7.04612e-314
1.11337e-314
1.75673e-315
2.76787e-316
4.35475e-317
6.84161e-318
1.07333e-318
1.68145e-319
2.63041e-320
4.10569e-321
6.37345e-322
9.38725e-323
1.4822e-323
0
0
0
0
0
0
0
0
0
0
0
0
0
0
0
0
0
0
0
0
0
0
0
0
0
0
0
0
0
0
0
0
0
0
0
0
0
0
0
0
0
0
0
0
0
0
0
0
0
0
0
0
0
0
0
0
0
0
0
0
0
0
0
0
0
0
0
0
0
0
0
0
0
0
0
0
0
0
0
0
0
0
0
0
0
0
0
0
0
0
0
0
0
0
0
0
0
0
0
0
0
0
0
0
0
0
0
0
0
0
0
0
0
0
0
0
0
0
0
0
0
0
0
0
0
0
0
0
0
0
0
0
0
0
0
0
0
0
0
0
0
0
0
0
0
0
0
0
0
0
0
0
0
0
0
0
0
0
0
0
0
0
0
0
0
0
0
0
0
0
0
0
0
0
0
0
0
0
0
0
0
0
0
0
0
0
0
0
0
0
0
0
0
0
0
0
0
0
0
0
0
0
0
0
0
0
0
0
0
0
0
0
0
0
0
0
0
0
0
0
0
0
0
0
0
0
0
0
0
0
0
0
0
0
0
0
0
0
0
0
0
0
0
0
0
0
0
0
0
0
0
0
0
0
0
0
0
0
0
0
0
0
0
0
0
0
0
0
0
0
0
0
0
0
0
0
0
0
0
0
0
0
0
0
0
0
0
0
0
0
0
0
0
0
0
0
0
0
0
0
0
0
0
0
0
0
0
0
0
0
0
0
0
0
0
0
0
0
0
0
0
0
0
0
0
0
0
0
0
0
0
0
0
0
0
0
0
0
0
0
0
0
0
0
0
0
0
0
0
0
0
0
0
0
0
0
0
0
0
0
0
0
0
0
0
0
0
0
0
0
0
0
0
0
0
0
0
0
0
0
0
0
0
0
0
0
0
0
0
0
0
0
0
0
0
0
0
0
0
0
0
0
0
0
0
0
0
0
0
0
0
0
0
0
0
0
0
0
0
0
0
0
0
0
0
0
0
0
0
0
0
0
0
0
0
0
0
0
0
0
0
0
0
0
0
0
0
0
0
0
0
0
0
0
0
0
0
0
0
0
0
0
0
0
0
0
0
0
0
0
0
0
0
0
0
0
0
0
0
0
0
0
0
0
0
0
0
0
0
0
0
0
0
0
0
0
0
0
0
0
0
0
0
0
0
0
0
0
0
0
0
0
0
0
0
0
0
0
0
0
0
0
0
0
0
0
0
0
0
0
0
0
0
0
0
0
0
0
0
0
0
0
0
0
0
0
0
0
0
0
0
0
0
0
0
0
0
0
0
0
0
0
0
0
0
0
0
0
0
0
0
0
0
0
0
0
0
0
0
0
0
0
0
0
0
0
0
0
0
0
0
0
0
0
0
0
0
0
0
0
0
0
0
0
0
0
0
0
0
0
0
0
0
0
0
0
0
0
0
0
0
0
0
0
0
0
0
0
0
0
0
0
0
0
0
0
0
0
0
0
0
0
0
0
0
0
0
0
0
0
0
0
0
0
0
0
0
0
0
0
0
0
0
0
0
0
0
0
0
0
0
0
0
0
0
0
0
0
0
0
0
0
0
0
0
0
0
0
0
0
0
0
0
0
0
0
0
0
0
0
0
0
0
0
0
0
0
0
0
0
0
0
0
0
0
0
0
0
0
0
0
0
0
0
0
0
0
0
0
0
0
0
0
0
0
0
0
0
0
0
0
0
0
0
0
0
0
0
0
0
0
0
0
0
0
0
0
0
0
0
0
0
0
0
0
0
0
0
0
0
0
0
0
0
0
0
0
0
0
0
0
0
0
0
0
0
0
0
0
0
0
0
0
0.0627869
0.0345541
0.0299574
0.025277
0.0221391
0.0200069
0.0184495
0.0172639
0.0163155
0.0155312
0.0148652
0.0142883
0.0137809
0.0133293
0.0129236
0.0125562
0.0122214
0.0119147
0.0116323
0.0113712
0.0111288
0.010903
0.010692
0.010494
0.0103078
0.0101322
0.00996591
0.00980806
0.00965771
0.00951405
0.00937633
0.00924395
0.00911649
0.00899378
0.00887601
0.0087639
0.0086588
0.00856284
0.00847903
0.00841117
0.00836375
0.00834145
0.00834851
0.00838767
0.00845889
0.00855783
0.00867409
0.00878979
0.00887826
0.00890366
0.00882158
0.00858138
0.00813049
0.00742111
0.00641992
0.00511875
0.00354748
0.00178643
-2.73717e-05
-0.00170011
-0.00299839
-0.0036835
-0.00354478
-0.00243013
-0.000268669
0.0029304
0.00708679
0.0120642
0.0176942
0.0237894
0.0301627
0.0366323
0.0430274
0.0491967
0.0550075
0.0603457
0.0651066
0.0692057
0.0725859
0.0752071
0.0770337
0.0780364
0.0782049
0.0775555
0.0761291
0.073986
0.0712002
0.0678573
0.0640545
0.0598999
0.0555099
0.0510025
0.0464892
0.0420678
0.0378175
0.0337975
0.0300477
0.0265911
0.0234368
0.0205833
0.0180208
0.0157342
0.0137048
0.0119122
0.010335
0.00895223
0.00774352
0.0066897
0.00577298
0.00497707
0.00428722
0.00369018
0.00317413
0.00272858
0.00234428
0.0020131
0.00172792
0.00148251
0.00127147
0.00109007
0.000934234
0.000800416
0.000685555
0.000587003
0.000502474
0.000429997
0.000367874
0.000314641
0.00026904
0.000229987
0.000196551
0.000167932
0.000143442
0.000122491
0.000104572
8.92497e-05
7.61517e-05
6.4958e-05
5.53946e-05
4.72265e-05
4.0252e-05
3.42983e-05
2.9217e-05
2.4882e-05
2.11852e-05
1.80347e-05
1.53509e-05
1.30645e-05
1.11154e-05
9.45202e-06
8.03125e-06
6.81797e-06
5.78337e-06
4.90242e-06
4.15169e-06
3.50847e-06
2.95231e-06
2.46813e-06
2.04919e-06
1.69761e-06
1.42105e-06
1.22574e-06
1.10846e-06
1.05103e-06
1.02051e-06
9.76185e-07
8.81632e-07
7.17488e-07
4.89959e-07
2.31176e-07
-9.48356e-09
-1.80597e-07
-2.45336e-07
-1.93848e-07
-4.71264e-08
1.4885e-07
3.36622e-07
4.6381e-07
4.97419e-07
4.31631e-07
2.87245e-07
1.03658e-07
-7.34976e-08
-2.05036e-07
-2.67572e-07
-2.5739e-07
-1.88558e-07
-8.66935e-08
1.92269e-08
1.04485e-07
1.53783e-07
1.63061e-07
1.38191e-07
9.15124e-08
3.75579e-08
-1.07893e-08
-4.48533e-08
-6.1123e-08
-6.07694e-08
-4.82005e-08
-2.92497e-08
-9.52048e-09
6.766e-09
1.72939e-08
2.16034e-08
2.06475e-08
1.617e-08
1.01007e-08
4.09542e-09
-7.20678e-10
-3.81591e-09
-5.16872e-09
-5.10473e-09
-4.11556e-09
-2.70441e-09
-1.28209e-09
-1.1793e-10
6.63251e-10
1.054e-09
1.12329e-09
9.75227e-10
7.16073e-10
4.33094e-10
1.85126e-10
2.26048e-12
-1.0876e-10
-1.5675e-10
-1.58354e-10
-1.31887e-10
-9.33034e-11
-5.42466e-11
-2.1685e-11
1.42692e-12
1.50192e-11
2.07157e-11
2.08324e-11
1.76733e-11
1.31286e-11
8.519e-12
4.61109e-12
1.72388e-12
-1.31018e-13
-1.11669e-12
-1.46618e-12
-1.41216e-12
-1.14809e-12
-8.13648e-13
-4.95972e-13
-2.3926e-13
-5.72682e-14
5.48403e-14
1.11025e-13
1.27797e-13
1.20316e-13
1.00549e-13
7.68405e-14
5.42788e-14
3.54264e-14
2.11108e-14
1.11175e-14
4.71691e-15
1.01949e-15
-8.15603e-16
-1.48026e-15
-1.48884e-15
-1.19051e-15
-8.00459e-16
-4.3572e-16
-1.4778e-16
5.14198e-17
1.70777e-16
2.2776e-16
2.41176e-16
2.27493e-16
1.99437e-16
1.65911e-16
1.32539e-16
1.02446e-16
7.70133e-17
5.65154e-17
4.05977e-17
2.86091e-17
1.98113e-17
1.34999e-17
9.06269e-18
5.99939e-18
3.91956e-18
2.52904e-18
1.6126e-18
1.01669e-18
6.34082e-19
3.91368e-19
2.39151e-19
1.4473e-19
8.6772e-20
5.15538e-20
3.03609e-20
1.77275e-20
1.0265e-20
5.89568e-21
3.35938e-21
1.89939e-21
1.06578e-21
5.93598e-22
3.28209e-22
1.80179e-22
9.82223e-23
5.31769e-23
2.85952e-23
1.52747e-23
8.10594e-24
4.27398e-24
2.23925e-24
1.16588e-24
6.03287e-25
3.10278e-25
1.58624e-25
8.06147e-26
4.07304e-26
2.04604e-26
1.02195e-26
5.07571e-27
2.50693e-27
1.23139e-27
6.01562e-28
2.92296e-28
1.4127e-28
6.79179e-29
3.24825e-29
1.54549e-29
7.31576e-30
3.44547e-30
1.61457e-30
7.52835e-31
3.49302e-31
1.61279e-31
7.41054e-32
3.38871e-32
1.54223e-32
6.98576e-33
3.1495e-33
1.41335e-33
6.31331e-34
2.80722e-34
1.24258e-34
5.4754e-35
2.40195e-35
1.04903e-35
4.56136e-36
1.9747e-36
8.51185e-37
3.65319e-37
1.56121e-37
6.64358e-38
2.8152e-38
1.18793e-38
4.9919e-39
2.08901e-39
8.70615e-40
3.61358e-40
1.49377e-40
6.15e-41
2.52188e-41
1.03001e-41
4.1902e-42
1.69792e-42
6.85327e-43
2.75541e-43
1.10355e-43
4.40278e-44
1.74984e-44
6.92811e-45
2.73267e-45
1.0738e-45
4.20372e-46
1.63955e-46
6.37099e-47
2.46654e-47
9.51429e-48
3.65663e-48
1.40026e-48
5.34279e-49
2.03127e-49
7.69508e-50
2.90479e-50
1.09265e-50
4.09557e-51
1.52977e-51
5.69407e-52
2.11209e-52
7.80729e-53
2.87604e-53
1.05585e-53
3.86304e-54
1.40858e-54
5.11882e-55
1.85395e-55
6.69223e-56
2.40767e-56
8.63342e-57
3.08556e-57
1.09915e-57
3.90263e-58
1.38115e-58
4.87209e-59
1.71311e-59
6.00423e-60
2.09766e-60
7.30513e-61
2.53594e-61
8.77555e-62
3.02719e-62
1.04098e-62
3.56847e-63
1.21947e-63
4.15441e-64
1.41093e-64
4.77709e-65
1.61246e-65
5.42607e-66
1.82037e-66
6.08859e-67
2.0303e-67
6.74989e-68
2.23733e-68
7.39374e-69
2.43616e-69
8.00308e-70
2.62135e-70
8.56079e-71
2.78758e-71
9.05044e-72
2.92986e-72
9.45718e-73
3.04382e-73
9.76843e-74
3.12595e-74
9.97456e-75
3.1737e-75
1.00694e-75
3.18572e-76
1.00504e-76
3.16183e-77
9.91913e-78
3.10308e-78
9.68056e-79
3.01163e-79
9.34325e-80
2.89065e-80
8.9186e-81
2.74414e-81
8.42029e-82
2.5767e-82
7.86358e-83
2.39331e-83
7.26449e-84
2.19908e-84
6.63912e-85
1.99902e-85
6.00297e-86
1.79787e-86
5.37031e-87
1.59989e-87
4.75377e-88