# vtk DataFile Version 2.0
FlowField
ASCII
DATASET STRUCTURED_GRID
DIMENSIONS 1602 1 52
POINTS 83304 float
0 0 0
0.1 0 0
0.2 0 0
0.3 0 0
0.4 0 0
0.5 0 0
0.6 0 0
0.7 0 0
0.8 0 0
0.9 0 0
1 0 0
1.1 0 0
1.2 0 0
1.3 0 0
1.4 0 0
1.5 0 0
1.6 0 0
1.7 0 0
1.8 0 0
1.9 0 0
2 0 0
2.1 0 0
2.2 0 0
2.3 0 0
2.4 0 0
2.5 0 0
2.6 0 0
2.7 0 0
2.8 0 0
2.9 0 0
3 0 0
3.1 0 0
3.2 0 0
3.3 0 0
3.4 0 0
3.5 0 0
3.6 0 0
3.7 0 0
3.8 0 0
3.9 0 0
4 0 0
4.1 0 0
4.2 0 0
4.3 0 0
4.4 0 0
4.5 0 0
4.6 0 0
4.7 0 0
4.8 0 0
4.9 0 0
5 0 0
5.1 0 0
5.2 0 0
5.3 0 0
5.4 0 0
5.5 0 0
5.6 0 0
5.7 0 0
5.8 0 0
5.9 0 0
6 0 0
6.1 0 0
6.2 0 0
6.3 0 0
6.4 0 0
6.5 0 0
6.6 0 0
6.7 0 0
6.8 0 0
6.9 0 0
7 0 0
7.1 0 0
7.2 0 0
7.3 0 0
7.4 0 0
7.5 0 0
7.6 0 0
7.7 0 0
7.8 0 0
7.9 0 0
8 0 0
8.1 0 0
8.2 0 0
8.3 0 0
8.4 0 0
8.5 0 0
8.6 0 0
8.7 0 0
8.8 0 0
8.9 0 0
9 0 0
9.1 0 0
9.2 0 0
9.3 0 0
9.4 0 0
9.5 0 0
9.6 0 0
9.7 0 0
9.8 0 0
9.9 0 0
10 0 0
10.1 0 0
10.2 0 0
10.3 0 0
10.4 0 0
10.5 0 0
10.6 0 0
10.7 0 0
10.8 0 0
10.9 0 0
11 0 0
11.1 0 0
11.2 0 0
11.3 0 0
11.4 0 0
11.5 0 0
11.6 0 0
11.7 0 0
11.8 0 0
11.9 0 0
12 0 0
12.1 0 0
12.2 0 0
12.3 0 0
12.4 0 0
12.5 0 0
12.6 0 0
12.7 0 0
12.8 0 0
12.9 0 0
13 0 0
13.1 0 0
13.2 0 0
13.3 0 0
13.4 0 0
13.5 0 0
13.6 0 0
13.7 0 0
13.8 0 0
13.9 0 0
14 0 0
14.1 0 0
14.2 0 0
14.3 0 0
14.4 0 0
14.5 0 0
14.6 0 0
14.7 0 0
14.8 0 0
14.9 0 0
15 0 0
15.1 0 0
15.2 0 0
15.3 0 0
15.4 0 0
15.5 0 0
15.6 0 0
15.7 0 0
15.8 0 0
15.9 0 0
16 0 0
16.1 0 0
16.2 0 0
16.3 0 0
16.4 0 0
16.5 0 0
16.6 0 0
16.7 0 0
16.8 0 0
16.9 0 0
17 0 0
17.1 0 0
17.2 0 0
17.3 0 0
17.4 0 0
17.5 0 0
17.6 0 0
17.7 0 0
17.8 0 0
17.9 0 0
18 0 0
18.1 0 0
18.2 0 0
18.3 0 0
18.4 0 0
18.5 0 0
18.6 0 0
18.7 0 0
18.8 0 0
18.9 0 0
19 0 0
19.1 0 0
19.2 0 0
19.3 0 0
19.4 0 0
19.5 0 0
19.6 0 0
19.7 0 0
19.8 0 0
19.9 0 0
20 0 0
20.1 0 0
20.2 0 0
20.3 0 0
20.4 0 0
20.5 0 0
20.6 0 0
20.7 0 0
20.8 0 0
20.9 0 0
21 0 0
21.1 0 0
21.2 0 0
21.3 0 0
21.4 0 0
21.5 0 0
21.6 0 0
21.7 0 0
21.8 0 0
21.9 0 0
22 0 0
22.1 0 0
22.2 0 0
22.3 0 0
22.4 0 0
22.5 0 0
22.6 0 0
22.7 0 0
22.8 0 0
22.9 0 0
23 0 0
23.1 0 0
23.2 0 0
23.3 0 0
23.4 0 0
23.5 0 0
23.6 0 0
23.7 0 0
23.8 0 0
23.9 0 0
24 0 0
24.1 0 0
24.2 0 0
24.3 0 0
24.4 0 0
24.5 0 0
24.6 0 0
24.7 0 0
24.8 0 0
24.9 0 0
25 0 0
25.1 0 0
25.2 0 0
25.3 0 0
25.4 0 0
25.5 0 0
25.6 0 0
25.7 0 0
25.8 0 0
25.9 0 0
26 0 0
26.1 0 0
26.2 0 0
26.3 0 0
26.4 0 0
26.5 0 0
26.6 0 0
26.7 0 0
26.8 0 0
26.9 0 0
27 0 0
27.1 0 0
27.2 0 0
27.3 0 0
27.4 0 0
27.5 0 0
27.6 0 0
27.7 0 0
27.8 0 0
27.9 0 0
28 0 0
28.1 0 0
28.2 0 0
28.3 0 0
28.4 0 0
28.5 0 0
28.6 0 0
28.7 0 0
28.8 0 0
28.9 0 0
29 0 0
29.1 0 0
29.2 0 0
29.3 0 0
29.4 0 0
29.5 0 0
29.6 0 0
29.7 0 0
29.8 0 0
29.9 0 0
30 0 0
30.1 0 0
30.2 0 0
30.3 0 0
30.4 0 0
30.5 0 0
30.6 0 0
30.7 0 0
30.8 0 0
30.9 0 0
31 0 0
31.1 0 0
31.2 0 0
31.3 0 0
31.4 0 0
31.5 0 0
31.6 0 0
31.7 0 0
31.8 0 0
31.9 0 0
32 0 0
32.1 0 0
32.2 0 0
32.3 0 0
32.4 0 0
32.5 0 0
32.6 0 0
32.7 0 0
32.8 0 0
32.9 0 0
33 0 0
33.1 0 0
33.2 0 0
33.3 0 0
33.4 0 0
33.5 0 0
33.6 0 0
33.7 0 0
33.8 0 0
33.9 0 0
34 0 0
34.1 0 0
34.2 0 0
34.3 0 0
34.4 0 0
34.5 0 0
34.6 0 0
34.7 0 0
34.8 0 0
34.9 0 0
35 0 0
35.1 0 0
35.2 0 0
35.3 0 0
35.4 0 0
35.5 0 0
35.6 0 0
35.7 0 0
35.8 0 0
35.9 0 0
36 0 0
36.1 0 0
36.2 0 0
36.3 0 0
36.4 0 0
36.5 0 0
36.6 0 0
36.7 0 0
36.8 0 0
36.9 0 0
37 0 0
37.1 0 0
37.2 0 0
37.3 0 0
37.4 0 0
37.5 0 0
37.6 0 0
37.7 0 0
37.8 0 0
37.9 0 0
38 0 0
38.1 0 0
38.2 0 0
38.3 0 0
38.4 0 0
38.5 0 0
38.6 0 0
38.7 0 0
38.8 0 0
38.9 0 0
39 0 0
39.1 0 0
39.2 0 0
39.3 0 0
39.4 0 0
39.5 0 0
39.6 0 0
39.7 0 0
39.8 0 0
39.9 0 0
40 0 0
40.1 0 0
40.2 0 0
40.3 0 0
40.4 0 0
40.5 0 0
40.6 0 0
40.7 0 0
40.8 0 0
40.9 0 0
41 0 0
41.1 0 0
41.2 0 0
41.3 0 0
41.4 0 0
41.5 0 0
41.6 0 0
41.7 0 0
41.8 0 0
41.9 0 0
42 0 0
42.1 0 0
42.2 0 0
42.3 0 0
42.4 0 0
42.5 0 0
42.6 0 0
42.7 0 0
42.8 0 0
42.9 0 0
43 0 0
43.1 0 0
43.2 0 0
43.3 0 0
43.4 0 0
43.5 0 0
43.6 0 0
43.7 0 0
43.8 0 0
43.9 0 0
44 0 0
44.1 0 0
44.2 0 0
44.3 0 0
44.4 0 0
44.5 0 0
44.6 0 0
44.7 0 0
44.8 0 0
44.9 0 0
45 0 0
45.1 0 0
45.2 0 0
45.3 0 0
45.4 0 0
45.5 0 0
45.6 0 0
45.7 0 0
45.8 0 0
45.9 0 0
46 0 0
46.1 0 0
46.2 0 0
46.3 0 0
46.4 0 0
46.5 0 0
46.6 0 0
46.7 0 0
46.8 0 0
46.9 0 0
47 0 0
47.1 0 0
47.2 0 0
47.3 0 0
47.4 0 0
47.5 0 0
47.6 0 0
47.7 0 0
47.8 0 0
47.9 0 0
48 0 0
48.1 0 0
48.2 0 0
48.3 0 0
48.4 0 0
48.5 0 0
48.6 0 0
48.7 0 0
48.8 0 0
48.9 0 0
49 0 0
49.1 0 0
49.2 0 0
49.3 0 0
49.4 0 0
49.5 0 0
49.6 0 0
49.7 0 0
49.8 0 0
49.9 0 0
50 0 0
50.1 0 0
50.2 0 0
50.3 0 0
50.4 0 0
50.5 0 0
50.6 0 0
50.7 0 0
50.8 0 0
50.9 0 0
51 0 0
51.1 0 0
51.2 0 0
51.3 0 0
51.4 0 0
51.5 0 0
51.6 0 0
51.7 0 0
51.8 0 0
51.9 0 0
52 0 0
52.1 0 0
52.2 0 0
52.3 0 0
52.4 0 0
52.5 0 0
52.6 0 0
52.7 0 0
52.8 0 0
52.9 0 0
53 0 0
53.1 0 0
53.2 0 0
53.3 0 0
53.4 0 0
53.5 0 0
53.6 0 0
53.7 0 0
53.8 0 0
53.9 0 0
54 0 0
54.1 0 0
54.2 0 0
54.3 0 0
54.4 0 0
54.5 0 0
54.6 0 0
54.7 0 0
54.8 0 0
54.9 0 0
55 0 0
55.1 0 0
55.2 0 0
55.3 0 0
55.4 0 0
55.5 0 0
55.6 0 0
55.7 0 0
55.8 0 0
55.9 0 0
56 0 0
56.1 0 0
56.2 0 0
56.3 0 0
56.4 0 0
56.5 0 0
56.6 0 0
56.7 0 0
56.8 0 0
56.9 0 0
57 0 0
57.1 0 0
57.2 0 0
57.3 0 0
57.4 0 0
57.5 0 0
57.6 0 0
57.7 0 0
57.8 0 0
57.9 0 0
58 0 0
58.1 0 0
58.2 0 0
58.3 0 0
58.4 0 0
58.5 0 0
58.6 0 0
58.7 0 0
58.8 0 0
58.9 0 0
59 0 0
59.1 0 0
59.2 0 0
59.3 0 0
59.4 0 0
59.5 0 0
59.6 0 0
59.7 0 0
59.8 0 0
59.9 0 0
60 0 0
60.1 0 0
60.2 0 0
60.3 0 0
60.4 0 0
60.5 0 0
60.6 0 0
60.7 0 0
60.8 0 0
60.9 0 0
61 0 0
61.1 0 0
61.2 0 0
61.3 0 0
61.4 0 0
61.5 0 0
61.6 0 0
61.7 0 0
61.8 0 0
61.9 0 0
62 0 0
62.1 0 0
62.2 0 0
62.3 0 0
62.4 0 0
62.5 0 0
62.6 0 0
62.7 0 0
62.8 0 0
62.9 0 0
63 0 0
63.1 0 0
63.2 0 0
63.3 0 0
63.4 0 0
63.5 0 0
63.6 0 0
63.7 0 0
63.8 0 0
63.9 0 0
64 0 0
64.1 0 0
64.2 0 0
64.3 0 0
64.4 0 0
64.5 0 0
64.6 0 0
64.7 0 0
64.8 0 0
64.9 0 0
65 0 0
65.1 0 0
65.2 0 0
65.3 0 0
65.4 0 0
65.5 0 0
65.6 0 0
65.7 0 0
65.8 0 0
65.9 0 0
66 0 0
66.1 0 0
66.2 0 0
66.3 0 0
66.4 0 0
66.5 0 0
66.6 0 0
66.7 0 0
66.8 0 0
66.9 0 0
67 0 0
67.1 0 0
67.2 0 0
67.3 0 0
67.4 0 0
67.5 0 0
67.6 0 0
67.7 0 0
67.8 0 0
67.9 0 0
68 0 0
68.1 0 0
68.2 0 0
68.3 0 0
68.4 0 0
68.5 0 0
68.6 0 0
68.7 0 0
68.8 0 0
68.9 0 0
69 0 0
69.1 0 0
69.2 0 0
69.3 0 0
69.4 0 0
69.5 0 0
69.6 0 0
69.7 0 0
69.8 0 0
69.9 0 0
70 0 0
70.1 0 0
70.2 0 0
70.3 0 0
70.4 0 0
70.5 0 0
70.6 0 0
70.7 0 0
70.8 0 0
70.9 0 0
71 0 0
71.1 0 0
71.2 0 0
71.3 0 0
71.4 0 0
71.5 0 0
71.6 0 0
71.7 0 0
71.8 0 0
71.9 0 0
72 0 0
72.1 0 0
72.2 0 0
72.3 0 0
72.4 0 0
72.5 0 0
72.6 0 0
72.7 0 0
72.8 0 0
72.9 0 0
73 0 0
73.1 0 0
73.2 0 0
73.3 0 0
73.4 0 0
73.5 0 0
73.6 0 0
73.7 0 0
73.8 0 0
73.9 0 0
74 0 0
74.1 0 0
74.2 0 0
74.3 0 0
74.4 0 0
74.5 0 0
74.6 0 0
74.7 0 0
74.8 0 0
74.9 0 0
75 0 0
75.1 0 0
75.2 0 0
75.3 0 0
75.4 0 0
75.5 0 0
75.6 0 0
75.7 0 0
75.8 0 0
75.9 0 0
76 0 0
76.1 0 0
76.2 0 0
76.3 0 0
76.4 0 0
76.5 0 0
76.6 0 0
76.7 0 0
76.8 0 0
76.9 0 0
77 0 0
77.1 0 0
77.2 0 0
77.3 0 0
77.4 0 0
77.5 0 0
77.6 0 0
77.7 0 0
77.8 0 0
77.9 0 0
78 0 0
78.1 0 0
78.2 0 0
78.3 0 0
78.4 0 0
78.5 0 0
78.6 0 0
78.7 0 0
78.8 0 0
78.9 0 0
79 0 0
79.1 0 0
79.2 0 0
79.3 0 0
79.4 0 0
79.5 0 0
79.6 0 0
79.7 0 0
79.8 0 0
79.9 0 0
80 0 0
80.1 0 0
80.2 0 0
80.3 0 0
80.4 0 0
80.5 0 0
80.6 0 0
80.7 0 0
80.8 0 0
80.9 0 0
81 0 0
81.1 0 0
81.2 0 0
81.3 0 0
81.4 0 0
81.5 0 0
81.6 0 0
81.7 0 0
81.8 0 0
81.9 0 0
82 0 0
82.1 0 0
82.2 0 0
82.3 0 0
82.4 0 0
82.5 0 0
82.6 0 0
82.7 0 0
82.8 0 0
82.9 0 0
83 0 0
83.1 0 0
83.2 0 0
83.3 0 0
83.4 0 0
83.5 0 0
83.6 0 0
83.7 0 0
83.8 0 0
83.9 0 0
84 0 0
84.1 0 0
84.2 0 0
84.3 0 0
84.4 0 0
84.5 0 0
84.6 0 0
84.7 0 0
84.8 0 0
84.9 0 0
85 0 0
85.1 0 0
85.2 0 0
85.3 0 0
85.4 0 0
85.5 0 0
85.6 0 0
85.7 0 0
85.8 0 0
85.9 0 0
86 0 0
86.1 0 0
86.2 0 0
86.3 0 0
86.4 0 0
86.5 0 0
86.6 0 0
86.7 0 0
86.8 0 0
86.9 0 0
87 0 0
87.1 0 0
87.2 0 0
87.3 0 0
87.4 0 0
87.5 0 0
87.6 0 0
87.7 0 0
87.8 0 0
87.9 0 0
88 0 0
88.1 0 0
88.2 0 0
88.3 0 0
88.4 0 0
88.5 0 0
88.6 0 0
88.7 0 0
88.8 0 0
88.9 0 0
89 0 0
89.1 0 0
89.2 0 0
89.3 0 0
89.4 0 0
89.5 0 0
89.6 0 0
89.7 0 0
89.8 0 0
89.9 0 0
90 0 0
90.1 0 0
90.2 0 0
90.3 0 0
90.4 0 0
90.5 0 0
90.6 0 0
90.7 0 0
90.8 0 0
90.9 0 0
91 0 0
91.1 0 0
91.2 0 0
91.3 0 0
91.4 0 0
91.5 0 0
91.6 0 0
91.7 0 0
91.8 0 0
91.9 0 0
92 0 0
92.1 0 0
92.2 0 0
92.3 0 0
92.4 0 0
92.5 0 0
92.6 0 0
92.7 0 0
92.8 0 0
92.9 0 0
93 0 0
93.1 0 0
93.2 0 0
93.3 0 0
93.4 0 0
93.5 0 0
93.6 0 0
93.7 0 0
93.8 0 0
93.9 0 0
94 0 0
94.1 0 0
94.2 0 0
94.3 0 0
94.4 0 0
94.5 0 0
94.6 0 0
94.7 0 0
94.8 0 0
94.9 0 0
95 0 0
95.1 0 0
95.2 0 0
95.3 0 0
95.4 0 0
95.5 0 0
95.6 0 0
95.7 0 0
95.8 0 0
95.9 0 0
96 0 0
96.1 0 0
96.2 0 0
96.3 0 0
96.4 0 0
96.5 0 0
96.6 0 0
96.7 0 0
96.8 0 0
96.9 0 0
97 0 0
97.1 0 0
97.2 0 0
97.3 0 0
97.4 0 0
97.5 0 0
97.6 0 0
97.7 0 0
97.8 0 0
97.9 0 0
98 0 0
98.1 0 0
98.2 0 0
98.3 0 0
98.4 0 0
98.5 0 0
98.6 0 0
98.7 0 0
98.8 0 0
98.9 0 0
99 0 0
99.1 0 0
99.2 0 0
99.3 0 0
99.4 0 0
99.5 0 0
99.6 0 0
99.7 0 0
99.8 0 0
99.9 0 0
100 0 0
100.1 0 0
100.2 0 0
100.3 0 0
100.4 0 0
100.5 0 0
100.6 0 0
100.7 0 0
100.8 0 0
100.9 0 0
101 0 0
101.1 0 0
101.2 0 0
101.3 0 0
101.4 0 0
101.5 0 0
101.6 0 0
101.7 0 0
101.8 0 0
101.9 0 0
102 0 0
102.1 0 0
102.2 0 0
102.3 0 0
102.4 0 0
102.5 0 0
102.6 0 0
102.7 0 0
102.8 0 0
102.9 0 0
103 0 0
103.1 0 0
103.2 0 0
103.3 0 0
103.4 0 0
103.5 0 0
103.6 0 0
103.7 0 0
103.8 0 0
103.9 0 0
104 0 0
104.1 0 0
104.2 0 0
104.3 0 0
104.4 0 0
104.5 0 0
104.6 0 0
104.7 0 0
104.8 0 0
104.9 0 0
105 0 0
105.1 0 0
105.2 0 0
105.3 0 0
105.4 0 0
105.5 0 0
105.6 0 0
105.7 0 0
105.8 0 0
105.9 0 0
106 0 0
106.1 0 0
106.2 0 0
106.3 0 0
106.4 0 0
106.5 0 0
106.6 0 0
106.7 0 0
106.8 0 0
106.9 0 0
107 0 0
107.1 0 0
107.2 0 0
107.3 0 0
107.4 0 0
107.5 0 0
107.6 0 0
107.7 0 0
107.8 0 0
107.9 0 0
108 0 0
108.1 0 0
108.2 0 0
108.3 0 0
108.4 0 0
108.5 0 0
108.6 0 0
108.7 0 0
108.8 0 0
108.9 0 0
109 0 0
109.1 0 0
109.2 0 0
109.3 0 0
109.4 0 0
109.5 0 0
109.6 0 0
109.7 0 0
109.8 0 0
109.9 0 0
110 0 0
110.1 0 0
110.2 0 0
110.3 0 0
110.4 0 0
110.5 0 0
110.6 0 0
110.7 0 0
110.8 0 0
110.9 0 0
111 0 0
111.1 0 0
111.2 0 0
111.3 0 0
111.4 0 0
111.5 0 0
111.6 0 0
111.7 0 0
111.8 0 0
111.9 0 0
112 0 0
[...]
POINT_DATA 83304

SCALARS pressure float 1
LOOKUP_TABLE default
0
0
0
0
0
0
0
0
0
0
0
0
0
0
0
0
0
0
0
0
0
0
0
0
0
0
0
0
0
0
0
0
0
0
0
0
0
0
0
0
0
0
0
0
0
0
0
0
0
0
0
0
0
0
0
0
0
0
0
0
0
0
0
0
0
0
0
0
0
0
0
0
0
0
0
0
0
0
0
0
0
0
0
0
0
0
0
0
0
0
0
0
0
0
0
0
0
0
0
0
0
0
0
0
0
0
0
0
0
0
0
0
0
0
0
0
0
0
0
0
0
0
0
0
0
0
0
0
0
0
0
0
0
0
0
0
0
0
0
0
0
0
0
0
0
0
0
0
0
0
0
0
0
0
0
0
0
0
0
0
0
0
0
0
0
0
0
0
0
0
0
0
0
0
0
0
0
0
0
0
0
0
0
0
0
0
0
0
0
0
0
0
0
0
0
0
0
0
0
0
0
0
0
0
0
0
0
0
0
0
0
0
0
0
0
0
0
0
0
0
0
0
0
0
0
0
0
0
0
0
0
0
0
0
0
0
0
0
0
0
0
0
0
0
0
0
0
0
0
0
0
0
0
0
0
0
0
0
0
0
0
0
0
0
0
0
0
0
0
0
0
0
0
0
0
0
0
0
0
0
0
0
0
0
0
0
0
0
0
0
0
0
0
0
0
0
0
0
0
0
0
0
0
0
0
0
0
0
0
0
0
0
0
0
0
0
0
0
0
0
0
0
0
0
0
0
0
0
0
0
0
0
0
0
0
0
0
0
0
0
0
0
0
0
0
0
0
0
0
0
0
0
0
0
0
0
0
0
0
0
0
0
0
0
0
0
0
0
0
0
0
0
0
0
0
0
0
0
0
0
0
0
0
0
0
0
0
0
0
0
0
0
0
0
0
0
0
0
0
0
0
0
0
0
0
0
0
0
0
0
0
0
0
0
0
0
0
0
0
0
0
0
0
0
0
0
0
0
0
0
0
0
0
0
0
0
0
0
0
0
0
0
0
0
0
0
0
0
0
0
0
0
0
0
0
0
0
0
0
0
0
0
0
0
0
0
0
0
0
0
0
0
0
0
0
0
0
0
0
0
0
0
0
0
0
0
0
0
0
0
0
0
0
0
0
0
0
0
0
0
0
0
0
0
0
0
0
0
0
0
0
0
0
0
0
0
0
0
0
0
0
0
0
0
0
0
0
0
0
0
0
0
0
0
0
0
0
0
0
0
0
0
0
0
0
0
0
0
0
0
0
0
0
0
0
0
0
0
0
0
0
0
0
0
0
0
0
0
0
0
0
0
0
0
0
0
0
0
0
0
0
0
0
0
0
0
0
0
0
0
0
0
0
0
0
0
0
0
0
0
0
0
0
0
0
0
0
0
0
0
0
0
0
0
0
0
0
0
0
0
0
0
0
0
0
0
0
0
0
0
0
0
0
0
0
0
0
0
0
0
0
0
0
0
0
0
0
0
0
0
0
0
0
0
0
0
0
0
0
0
0
0
0
0
0
0
0
0
0
0
0
0
0
0
0
0
0
0
0
0
0
0
0
0
0
0
0
0
0
0
0
0
0
0
0
0
0
0
0
0
0
0
0
0
0
0
0
0
0
0
0
0
0
0
0
0
0
0
0
0
0
0
0
0
0
0
0
0
0
0
0
0
0
0
0
0
0
0
0
0
0
0
0
0
0
0
0
0
0
0
0
0
0
0
0
0
0
0
0
0
0
0
0
0
0
0
0
0
0
0
0
0
0
0
0
0
0
0
0
0
0
0
0
0
0
0
0
0
0
0
0
0
0
0
0
0
0
0
0
0
0
0
0
0
0
0
0
0
0
0
0
0
0
0
0
0
0
0
0
0
0
0
0
0
0
0
0
0
0
0
0
0
0
0
0
0
0
0
0
0
0
0
0
0
0
0
0
0
0
0
0
0
0
0
0
0
0
0
0
0
0
0
0
0
0
0
0
0
0
0
0
0
0
0
0
0
0
0
0
0
0
0
0
0
0
0
0
0
0
0
0
0
0
0
0
0
0
0
0
0
0
0
0
0
0
0
0
0
0
0
0
0
0
0
0
0
0
0
0
0
0
0
0
0
0
0
0
0
0
0
0
0
0
0
0
0
0
0
0
0
0
0
0
0
0
0
0
0
0
0
0
0
0
0
0
0
0
0
0
0
0
0
0
0
0
0
0
0
0
0
0
0
0
0
0
0
0
0
0
0
0
0
0
0
0
0
0
0
0
0
0
0
0
0
0
0
0
0
0
0
0
0
0
0
0
0
0
0
0
0
0
0
0
0
0
0
0
0
0
0
0
0
0
0
0
0
0
0
0
0
0
0
0
0
0
0
0
0
0
0
0
0
0
0
0
0
0
0
0
0
0
0
0
0
0
0
0
0
0
0
0
0
0
0
0
0
0
0
0
0
0
0
0
0
0
0
0
0
0
0
0
0
0
0
0
0
0
0
0
0
0
0
0
0
0
0
0
0
0
0
0
0
0
0
0
0
0
0
0
0
0
0
0
0
0
0
0
0
0
0
0
0
0
0
0
0
0
0
0
0
0
0
0
0
0
0
0
0
0
0
0
0
0
0
0
0
0
0
0
0
0
0
0
0
0
0
0
0
0
0
0
0
0
0
0
0
0
0
0
0
0
0
0
0
0
0
0
0
0
0
0
0
0
0
0
0
0
0
0
0
0
0
0
0
0
0
0
0
0
0
0
0
0
0
0
0
0
0
0
0
0
0
0
0
0
0
0
0
0
0
0
0
0
0
0
0
0
0
0
0
0
0
0
0
0
0
0
0
0
0
0
0
0
0
0
0
0
0
0
0
0
0
0
0
0
0
0
0
0
0
0
0
0
0
0
0
0
0
0
0
0
0
0
0
0
0
0
0
0
0
0
0
0
0
0
0
0
0
0
0
0
0
0
0
0
0
0
0
0
0
0
0
0
0
0
0
0
0
0
0
0
0
0
0
0
0
0
0
0
0
0
0
0
0
0
0
0
0
0
0
0
0
0
0
0
0
0
0
0
0
0
0
0
0
0
0
0
0
0
0
0
0
0
0
0
0
0
0
0
0
0
0
0
0
0
0
0
0
0
0
0
0
0
0
0
0
0
0
0
0
0
0
0
0
0
0
0
0
0
0
0
0
0
0
0
0
0
0
0
0
0
0
0
0
0
0
0
0
0
0
0
0
0
0
0
0
0
0
0
0
0
0
0
0
0
0
0
0
0
0
0
0
0
0
0
0
0
0
0
0
0
0
0
0
0
0
0
0
0
0
0
0
0
0
0
0
0
0
0
0
0
0
0
0
0
0
0
0
0
0
0
0
0
0
0
0
0
0
0
0
0
0
0
0
0
0
0
0
0
0
0
0
0
0
0
0
0
0
0
0
0
0
0
0
0
0
0
0
0
0
0
0
0
0
0
0
0
0
0
0
0
0
0
0
0
0
0
0
0
0
0
0
0
0
0
0
0
0
0
0
0
0
0
0
0
0
0
0
0
0
0
0
0
0
0
0
0
0
0
0
0
0
0
0
0
0
0
0
0
0
0
0
0
0
0
0
0
0
0
0
0
0
0
0
0
0
0
0
0
0
0
0
0
0
0
0
0
0
0
0
0
0
0
0.0776415
0.052903
0.0436505
0.0357426
0.0304801
0.0271088
0.024802
0.023116
0.0218009
0.0207278
0.0198236
0.0190438
0.0183598
0.0177521
0.0172068
0.0167136
0.0162646
0.0158534
0.0154752
0.0151258
0.0148017
0.0145001
0.0142188
0.0139559
0.0137102
0.0134809
0.0132679
0.0130719
0.0128942
0.012737
0.0126028
0.0124942
0.0124133
0.0123601
0.0123313
0.0123183
0.0123057
0.0122685
0.012172
0.0119706
0.0116105
0.0110337
0.0101856
0.00902657
0.00754618
0.00577954
0.00382142
0.00183491
4.59742e-05
-0.0012741
-0.00184033
-0.00139761
0.000243218
0.00318153
0.00742272
0.0128854
0.019422
0.0268468
0.0349504
0.0435227
0.0523574
0.0612584
0.0700543
0.078574
0.086649
0.0941079
0.100792
0.106572
0.111324
0.114906
0.117176
0.118028
0.117423
0.115389
0.112018
0.107451
0.101869
0.0954922
0.0885622
0.0813256
0.0740127
0.0668204
0.0599033
0.0533727
0.0472998
0.0417233
0.0366559
0.032091
0.0280091
0.0243815
0.0211748
0.0183527
0.0158786
0.0137168
0.0118333
0.0101961
0.00877616
0.00754683
0.00648424
0.00556706
0.00477634
0.0040954
0.00350954
0.00300591
0.00257331
0.00220196
0.00188338
0.00161024
0.00137617
0.00117568
0.00100403
0.000857137
0.000731475
0.000624017
0.000532164
0.000453678
0.000386642
0.000329405
0.000280551
0.000238864
0.000203304
0.000172985
0.000147147
0.000125136
0.000106384
9.03985e-05
7.67593e-05
6.51172e-05
5.51871e-05
4.67319e-05
3.95436e-05
3.34274e-05
2.82017e-05
2.37133e-05
1.98598e-05
1.66024e-05
1.39528e-05
1.19329e-05
1.05181e-05
9.59262e-06
8.94008e-06
8.28376e-06
7.36637e-06
6.04033e-06
4.33096e-06
2.44285e-06
7.01601e-07
-5.51497e-07
-1.07498e-06
-8.11609e-07
8.79999e-08
1.3095e-06
2.4698e-06
3.22925e-06
3.38402e-06
2.91141e-06
1.95834e-06
7.82842e-07
-3.28658e-07
-1.14075e-06
-1.52302e-06
-1.46726e-06
-1.06938e-06
-4.87241e-07
1.09546e-07
5.82912e-07
8.52699e-07
9.02921e-07
7.70853e-07
5.25739e-07
2.45008e-07
-5.47552e-09
-1.83308e-07
-2.72789e-07
-2.81089e-07
-2.30262e-07
-1.48172e-07
-6.07874e-08
1.2785e-08
6.22205e-08
8.53755e-08
8.61018e-08
7.14837e-08
4.93016e-08
2.62048e-08
6.74992e-09
-6.78883e-09
-1.40679e-08
-1.60515e-08
-1.43477e-08
-1.0658e-08
-6.41338e-09
-2.60178e-09
2.50786e-10
2.0008e-09
2.76409e-09
2.79105e-09
2.36581e-09
1.73966e-09
1.09798e-09
5.5329e-10
1.54935e-10
-9.34644e-11
-2.15407e-10
-2.45831e-10
-2.20063e-10
-1.6748e-10
-1.09e-10
-5.72066e-11
-1.78878e-11
7.9003e-12
2.18715e-11
2.69521e-11
2.62251e-11
2.23343e-11
1.72398e-11
1.22067e-11
7.91693e-12
4.62882e-12
2.33219e-12
8.75405e-13
5.54036e-14
-3.26681e-13
-4.37198e-13
-4.00444e-13
-3.00387e-13
-1.87872e-13
-8.94342e-14
-1.55205e-14
3.2913e-14
5.96613e-14
7.0206e-14
6.99591e-14
6.3425e-14
5.39412e-14
4.37381e-14
3.41442e-14
2.58272e-14
1.90146e-14
1.36704e-14
9.62147e-15
6.64243e-15
4.50529e-15
3.00602e-15
1.97517e-15
1.27926e-15
8.17327e-16
5.15479e-16
3.21117e-16
1.97689e-16
1.2033e-16
7.24463e-17
4.31595e-17
2.5451e-17
1.48606e-17
8.59403e-18
4.9238e-18
2.79546e-18
1.57309e-18
8.77593e-19
4.85464e-19
2.66333e-19
1.44935e-19
7.82473e-20
4.19162e-20
2.2283e-20
1.17572e-20
6.15781e-21
3.20183e-21
1.65298e-21
8.47393e-22
4.31415e-22
2.18144e-22
1.09565e-22
5.46667e-23
2.70977e-23
1.33456e-23
6.531e-24
3.17605e-24
1.53496e-24
7.37296e-25
3.52007e-25
1.67053e-25
7.88104e-26
3.69628e-26
1.72355e-26
7.99083e-27
3.68375e-27
1.68868e-27
7.69809e-28
3.48999e-28
1.57359e-28
7.05685e-29
3.14775e-29
1.39663e-29
6.16422e-30
2.70649e-30
1.18219e-30
5.13735e-31
2.22117e-31
9.55506e-32
4.08988e-32
1.74193e-32
7.38267e-33
3.11367e-33
1.30685e-33
5.45866e-34
2.2692e-34
9.38857e-35
3.86617e-35
1.58465e-35
6.465e-36
2.62544e-36
1.06132e-36
4.27089e-37
1.71092e-37
6.82324e-38
2.70905e-38
1.07083e-38
4.21419e-39
1.65123e-39
6.44194e-40
2.50237e-40
9.6788e-41
3.72769e-41
1.42961e-41
5.45967e-42
2.07633e-42
7.86352e-43
2.96579e-43
1.11398e-43
4.1671e-44
1.55248e-44
5.76047e-45
2.12884e-45
7.83591e-46
2.87281e-46
1.04907e-46
3.81585e-47
1.38254e-47
4.98963e-48
1.79381e-48
6.42405e-49
2.29179e-49
8.14481e-50
2.88362e-50
1.01707e-50
3.57381e-51
1.25108e-51
4.36335e-52
1.51616e-52
5.24888e-53
1.81048e-53
6.22201e-54
2.13053e-54
7.26897e-55
2.4711e-55
8.37046e-56
2.82524e-56
9.50205e-57
3.18449e-57
1.06349e-57
3.53915e-58
1.17367e-58
3.87867e-59
1.27736e-59
4.19224e-60
1.37115e-60
4.46929e-61
1.45182e-61
4.70013e-62
1.51649e-62
4.8765e-63
1.56286e-63
4.99209e-64
1.58927e-64
5.04286e-65
1.59486e-65
5.02734e-66
1.57955e-66
4.94665e-67
1.54411e-67
4.8044e-68
1.49004e-68
4.60643e-69
1.41951e-69
4.36043e-70
1.33518e-70
4.07544e-71
1.24005e-71
3.76133e-72
1.13732e-72
3.42822e-73
1.03016e-73
3.08599e-74
9.21603e-75
2.74383e-75
8.14403e-76
2.40988e-76
7.10932e-77
2.09095e-77
6.1312e-78
1.79242e-78
5.2243e-79
1.51816e-79
4.39856e-80
1.27061e-80
3.65955e-81
1.05089e-81
3.00893e-82
8.58994e-83
2.44511e-83
6.93968e-84
1.96389e-84
5.54164e-85
1.55921e-85
4.37441e-86
1.22374e-86
3.41361e-87
9.49511e-88
2.63361e-88
7.28403e-89
2.00893e-89
5.52501e-90
1.51524e-90
4.14394e-91
1.13014e-91
3.07356e-92
8.33576e-93
2.25448e-93
6.08065e-94
1.63553e-94
4.38705e-95
1.17355e-95
3.13071e-96
8.32922e-97
2.20997e-97
5.84784e-98
1.54323e-98
4.06163e-99
1.06611e-99
2.79091e-100
7.28666e-101
1.89739e-101
4.92756e-102
1.27632e-102
3.29716e-103
8.49529e-104
2.18312e-104
5.5955e-105
1.43043e-105
3.64725e-106
9.27547e-107
2.35278e-107
5.95259e-108
1.50214e-108
3.78096e-109
9.49246e-110
2.37709e-110
5.93754e-111
1.47932e-111
3.67635e-112
9.11323e-113
2.25337e-113
5.55776e-114
1.36734e-114
3.35556e-115
8.21429e-116
2.00582e-116
4.88579e-117
1.18714e-117
2.87735e-118
6.95686e-119
1.67789e-119
4.03692e-120
9.68883e-121
2.3197e-121
5.54031e-122
1.32002e-122
3.13741e-123
7.43897e-124
1.75957e-124
4.15195e-125
9.77363e-126
2.29519e-126
5.37701e-127
1.25669e-127
2.93009e-128
6.81559e-129
1.5816e-129
3.66153e-130
8.45675e-131
1.9486e-131
4.47943e-132
1.02732e-132
2.35057e-133
5.36571e-134
1.222e-134
2.77656e-135
6.29415e-136
1.42352e-136
3.21209e-137
7.23123e-138
1.6242e-138
3.63976e-139
8.13791e-140
1.81536e-140
4.04038e-141
8.97216e-142
1.98787e-142
4.39436e-143
9.69223e-144
2.13292e-144
4.68326e-145
1.026e-145
2.24273e-146
4.89144e-147
1.06446e-147
2.31129e-148
5.00745e-149
1.08248e-149
2.33485e-150
5.02508e-151
1.07912e-151
2.31231e-152
4.94389e-153
1.05473e-153
2.24526e-154
4.76921e-155
1.01084e-155
2.13784e-156
4.51159e-157
9.50046e-158
1.99629e-158
4.1857e-159
8.75749e-160
1.82836e-160
3.80902e-161
7.91841e-162
1.64262e-162
3.40027e-163
7.02374e-164
1.44778e-164
2.97797e-165
6.11253e-166
1.25201e-166
2.55906e-167
5.21966e-168
1.06242e-168
2.15795e-169
4.37403e-170
8.84743e-171
1.78587e-171
3.59736e-172
7.23133e-173
1.45062e-173
2.904e-174
5.80155e-175
1.15664e-175
2.30125e-176
4.56921e-177
9.05378e-178
1.79033e-178
3.53307e-179
6.95809e-180
1.36756e-180
2.6824e-181
5.25078e-182
1.02577e-182
1.99985e-183
3.89113e-184
7.55582e-185
1.46426e-185
2.83196e-186
5.46624e-187
1.05299e-187
2.02442e-188
3.88429e-189
7.43813e-190
1.42153e-190
2.71139e-191
5.16146e-192
9.80615e-193
1.8594e-193
3.51879e-194
6.64608e-195
1.25282e-195
2.35704e-196
4.42587e-197
8.29442e-198
1.55143e-198
2.89625e-199
5.39635e-200
1.00352e-200
1.86259e-201
3.45041e-202
6.37958e-203
1.17728e-203
2.16839e-204
3.98625e-205
7.31416e-206
1.33948e-206
2.44841e-207
4.4669e-208
8.13404e-209
1.47838e-209
2.68191e-210
4.85606e-211
8.77619e-212
1.58312e-212
2.85039e-213
5.12252e-214
9.18862e-215
1.64515e-215
2.94004e-216
5.24434e-217
9.33734e-218
1.65939e-218
2.94355e-219
5.21184e-220
9.21104e-221
1.6249e-221
2.86118e-222
5.02881e-223
8.82246e-224
1.54496e-224
2.70056e-225
4.7119e-226
8.20628e-227
1.42662e-227
2.47559e-228
4.28807e-229
7.41412e-230
1.27959e-230
2.20444e-231
3.79091e-232
6.50739e-233
1.11504e-233
1.90718e-234
3.25625e-235
5.54966e-236
9.44145e-237
1.60338e-237
2.71807e-238
4.59953e-239
7.76953e-240
1.31011e-240
2.2052e-241
3.70531e-242
6.21488e-243
1.04058e-243
1.73922e-244
2.90183e-245
4.8331e-246
8.03563e-247
1.33369e-247
2.20968e-248
3.65466e-249
6.03406e-250
9.94526e-251
1.63632e-251
2.68762e-252
4.40673e-253
7.21295e-254
1.17858e-254
1.92247e-255
3.13047e-256
5.08879e-257
8.25799e-258
1.33779e-258
2.16352e-259
3.49293e-260
5.62962e-261
9.05789e-262
1.45491e-262
2.33296e-263
3.73458e-264
5.96816e-265
9.52147e-266
1.51647e-266
2.41118e-267
3.82732e-268
6.06498e-269
9.59476e-270
1.51534e-270
2.38923e-271
3.76079e-272
5.90982e-273
9.27139e-274
1.45208e-274
2.27047e-275
3.5442e-276
5.52332e-277
8.59334e-278
1.33477e-278
2.06981e-279
3.20434e-280
4.95257e-281
7.64201e-282
1.17726e-282
1.8106e-283
2.7801e-284
4.26174e-285
6.52234e-286
9.96578e-287
1.52023e-287
2.31528e-288
3.52037e-289
5.34402e-290
8.09923e-291
1.22551e-291
1.85133e-292
2.79223e-293
4.20454e-294
6.32098e-295
9.4875e-296
1.42174e-296
2.12712e-297
3.17737e-298
4.73858e-299
7.0556e-300
1.04888e-300
1.55677e-301
2.30692e-302
3.41309e-303
5.04166e-304
7.43551e-305
1.09486e-305
1.60961e-306
2.36262e-307
3.46244e-308
5.06624e-309
7.40125e-310
1.07955e-310
1.57215e-311
2.28595e-312
3.31863e-313
4.81028e-314
6.96151e-315
1.00591e-315
1.45123e-316
2.09044e-317
3.00651e-318
4.31734e-319
6.18965e-320
8.8586e-321
1.26481e-321
1.77864e-322
2.47033e-323
0
0
0
0
0
0
0
0
0
0
0
0
0
0
0
0
0
0
0
0
0
0
0
0
0
0
0
0
0
0
0
0
0
0
0
0
0
0
0
0
0
0
0
0
0
0
0
0
0
0
0
0
0
0
0
0
0
0
0
0
0
0
0
0
0
0
0
0
0
0
0
0
0
0
0
0
0
0
0
0
0
0
0
0
0
0
0
0
0
0
0
0
0
0
0
0
0
0
0
0
0
0
0
0
0
0
0
0
0
0
0
0
0
0
0
0
0
0
0
0
0
0
0
0
0
0
0
0
0
0
0
0
0
0
0
0
0
0
0
0
0
0
0
0
0
0
0
0
0
0
0
0
0
0
0
0
0
0
0
0
0
0
0
0
0
0
0
0
0
0
0
0
0
0
0
0
0
0
0
0
0
0
0
0
0
0
0
0
0
0
0
0
0
0
0
0
0
0
0
0
0
0
0
0
0
0
0
0
0
0
0
0
0
0
0
0
0
0
0
0
0
0
0
0
0
0
0
0
0
0
0
0
0
0
0
0
0
0
0
0
0
0
0
0
0
0
0
0
0
0
0
0
0
0
0
0
0
0
0
0
0
0
0
0
0
0
0
0
0
0
0
0
0
0
0
0
0
0
0
0
0
0
0
0
0
0
0
0
0
0
0
0
0
0
0
0
0
0
0
0
0
0
0
0
0
0
0
0
0
0
0
0
0
0
0
0
0
0
0
0
0
0
0
0
0
0
0
0
0
0
0
0
0
0
0
0
0
0
0
0
0
0
0
0
0
0
0
0
0
0
0
0
0
0
0
0
0
0
0
0
0
0
0
0
0
0
0
0
0
0
0
0
0
0
0
0
0
0
0
0
0
0
0
0
0
0
0
0
0
0
0
0
0
0
0
0
0
0
0
0
0
0
0
0
0
0
0
0
0
0
0
0
0
0
0
0
0
0
0
0
0
0
0
0
0
0
0
0
0
0
0
0
0
0
0
0
0
0
0
0
0
0
0
0
0
0
0
0
0
0
0
0
0
0
0
0
0
0
0
0
0
0
0
0
0
0
0
0
0
0
0
0
0
0
0
0
0
0
0
0
0
0
0
0
0
0
0
0
0
0
0
0
0
0
0
0
0
0
0
0
0
0
0
0
0
0
0
0
0
0
0
0
0
0
0
0
0
0
0
0
0
0
0
0
0
0
0
0
0
0
0
0
0
0
0
0
0
0
0
0
0
0
0
0
0
0
0
0
0
0
0
0
0
0
0
0
0
0
0
0
0
0
0
0
0
0
0
0
0
0
0
0
0
0
0
0
0
0
0
0
0
0
0
0
0
0
0
0
0
0
0
0
0
0
0
0
0
0
0
0
0
0
0
0
0
0
0
0
0
0
0
0
0
0
0
0
0
0
0
0
0
0
0
0
0
0
0
0
0
0
0
0
0
0
0
0
0
0
0
0
0
0
0
0
0
0
0
0
0
0
0
0
0
0
0
0
0
0
0
0
0
0
0
0
0
0
0
0
0
0
0
0
0
0
0
0
0
0
0
0
0
0
0
0
0
0
0
0
0
0
0
0
0
0
0
0
0
0
0
0
0
0
0
0
0
0
0
0
0
0
0
0
0
0
0
0
0
0
0
0
0
0
0
0
0
0
0
0
0
0
0
0
0
0
0
0
0
0
0
0
0
0
0
0
0
0
0
0
0
0
0
0
0
0
0
0
0
0
0
0
0
0
0
0
0
0
0
0
0
0
0
0
0
0
0
0
0
0
0
0
0
0
0
0
0
0
0
0
0
0
0
0
0
0
0
0
0
0
0
0
0
0
0
0
0
0
0
0
0
0
0
0
0
0
0
0
0
0
0
0
0
0
0
0
0
0
0
0
0
0
0
0
0
0
0
0
0
0
0
0
0
0
0
0
0
0
0
0
0
0
0
0
0
0.062787
0.0345542
0.0299575
0.0252771
0.0221392
0.0200069
0.0184495
0.0172639
0.0163156
0.0155313
0.0148653
0.0142884
0.013781
0.0133294
0.0129237
0.0125564
0.0122216
0.0119149
0.0116326
0.0113716
0.0111293
0.0109038
0.0106932
0.0104964
0.0103122
0.0101402
0.00998027
0.00983294
0.00969925
0.00958084
0.00947976
0.00939814
0.0093377
0.00929885
0.00927962
0.00927424
0.00927166
0.00925409
0.00919601
0.00906391
0.0088174
0.00841214
0.00780503
0.00696218
0.00586918
0.00454365
0.00304693
0.00149333
4.87826e-05
-0.00107973
-0.00166568
-0.00149857
-0.000417639
0.00166532
0.00475938
0.00879752
0.0136536
0.0191657
0.025148
0.0314142
0.0377845
0.044089
0.0501832
0.0559388
0.0612453
0.0660068
0.0701467
0.0736142
0.0763687
0.0783645
0.0795558
0.0799141
0.0794404
0.0781643
0.0761386
0.0734321
0.0701275
0.06632
0.0621178
0.05764
0.0530102
0.0483483
0.0437611
0.039337
0.0351427
0.0312242
0.027609
0.0243088
0.0213233
0.0186435
0.0162538
0.0141349
0.0122652
0.0106224
0.00918405
0.00792866
0.0068359
0.00588692
0.00506445
0.0043529
0.00373825
0.00320801
0.00275114
0.00235788
0.00201971
0.00172914
0.00147965
0.00126558
0.00108202
0.000924693
0.000789933
0.000674554
0.000575812
0.000491344
0.000419116
0.00035738
0.000304634
0.000259588
0.000221131
0.000188309
0.000160304
0.00013642
0.000116062
9.87214e-05
8.39531e-05
7.13695e-05
6.06351e-05
5.14685e-05
4.36413e-05
3.69698e-05
3.12977e-05
2.64787e-05
2.23683e-05
1.88318e-05
1.57659e-05
1.31205e-05
1.09037e-05
9.15933e-06
7.91979e-06
7.15372e-06
6.73347e-06
6.44353e-06
6.03365e-06
5.29989e-06
4.16186e-06
2.70307e-06
1.15438e-06
-1.77079e-07
-1.00934e-06
-1.18114e-06
-7.07469e-07
2.23416e-07
1.30873e-06
2.22348e-06
2.71427e-06
2.66475e-06
2.11489e-06
1.23314e-06
2.55371e-07
-5.86968e-07
-1.12716e-06
-1.2965e-06
-1.1258e-06
-7.20234e-07
-2.19536e-07
2.42911e-07
5.70937e-07
7.20455e-07
6.98078e-07
5.47624e-07
3.30872e-07
1.08821e-07
-7.20228e-08
-1.86297e-07
-2.29687e-07
-2.13993e-07
-1.59924e-07
-8.99867e-08
-2.3109e-08
2.82961e-08
5.89092e-08
6.93467e-08
6.40931e-08
4.92856e-08
3.08917e-08
1.35473e-08
7.91914e-11
-8.42631e-09
-1.22181e-08
-1.23473e-08
-1.01663e-08
-6.9529e-09
-3.69154e-09
-9.96128e-10
8.63715e-10
1.87891e-09
2.19936e-09
2.04201e-09
1.62318e-09
1.11853e-09
6.4729e-10
2.73801e-10
1.8687e-11
-1.26461e-10
-1.85266e-10
-1.85868e-10
-1.54019e-10
-1.09623e-10
-6.58511e-11
-2.98561e-11
-4.23646e-12
1.13498e-11
1.87859e-11
2.04673e-11
1.86566e-11
1.51605e-11
1.12368e-11
7.63914e-12
4.72691e-12
2.59071e-12
1.16333e-12
3.04471e-13
-1.42886e-13
-3.20338e-13
-3.39858e-13
-2.81181e-13
-1.95549e-13
-1.12083e-13
-4.44576e-14
3.35717e-15
3.27346e-14
4.74117e-14
5.16658e-14
4.93459e-14
4.34737e-14
3.6183e-14
2.88318e-14
2.21785e-14
1.6562e-14
1.20544e-14
8.57656e-15
5.97874e-15
4.0909e-15
2.75154e-15
1.8214e-15
1.18781e-15
7.63789e-16
4.8463e-16
3.03625e-16
1.87932e-16
1.14979e-16
6.9564e-17
4.16368e-17
2.46634e-17
1.44629e-17
8.39879e-18
4.83123e-18
2.75352e-18
1.5553e-18
8.70816e-19
4.83412e-19
2.66114e-19
1.45297e-19
7.8697e-20
4.22901e-20
2.25509e-20
1.19343e-20
6.26889e-21
3.26892e-21
1.69235e-21
8.69957e-22
4.44093e-22
2.25146e-22
1.13374e-22
5.67101e-23
2.81805e-23
1.39128e-23
6.82485e-24
3.32677e-24
1.61153e-24
7.75835e-25
3.71236e-25
1.76567e-25
8.34795e-26
3.92363e-26
1.83342e-26
8.51781e-27
3.93472e-27
1.80735e-27
8.25547e-28
3.75002e-28
1.69411e-28
7.6118e-29
3.40168e-29
1.51211e-29
6.68612e-30
2.94096e-30
1.28691e-30
5.60231e-31
2.42644e-31
1.04561e-31
4.48321e-32
1.91268e-32
8.11987e-33
3.43024e-33
1.44207e-33
6.03321e-34
2.51205e-34
1.04098e-34
4.29342e-35
1.76249e-35
7.2016e-36
2.92901e-36
1.18582e-36
4.779e-37
1.91729e-37
7.65743e-38
3.04465e-38
1.20521e-38
4.74977e-39
1.86371e-39
7.28102e-40
2.83221e-40
1.09696e-40
4.23058e-41
1.62466e-41
6.21284e-42
2.36589e-42
8.9719e-43
3.38823e-43
1.27429e-43
4.7729e-44
1.78043e-44
6.61461e-45
2.44755e-45
9.0202e-46
3.31106e-46
1.21058e-46
4.40867e-47
1.59924e-47
5.77862e-48
2.07992e-48
7.45742e-49
2.66355e-49
9.47698e-50
3.35912e-50
1.18614e-50
4.1726e-51
1.46234e-51
5.10587e-52
1.77613e-52
6.15568e-53
2.12558e-53
7.31286e-54
2.50676e-54
8.56176e-55
2.91369e-55
9.88011e-56
3.3383e-56
1.12393e-56
3.77062e-57
1.26053e-57
4.19917e-58
1.39397e-58
4.61136e-59
1.52019e-59
4.99416e-60
1.63506e-60
5.33476e-61
1.73466e-61
5.62128e-62
1.81546e-62
5.84349e-63
1.87456e-63
5.99342e-64
1.90986e-64
6.06581e-65
1.92017e-65
6.05843e-66
1.90527e-66
5.97219e-67
1.86594e-67
5.81103e-68
1.80387e-68
5.58164e-69
1.72157e-69
5.29299e-70
1.62216e-70
4.95578e-71
1.50924e-71
4.5818e-72
1.38661e-72
4.18324e-73
1.25811e-73
3.77207e-74
1.12745e-74
3.35952e-75
9.97984e-76
2.95557e-76
8.72639e-77
2.56867e-77
7.5382e-78
2.20555e-78
6.43366e-79
1.87111e-79
5.42553e-80
1.56853e-80
4.52119e-81
1.29936e-81
3.72327e-82
1.06376e-82
3.03034e-83
8.60738e-84
2.43773e-84
6.884e-85
1.93838e-85
5.44235e-86
1.52365e-86
4.25343e-87
1.184e-87
3.28647e-88
9.0965e-89
2.51067e-89
6.91002e-90
1.89648e-90
5.19036e-91
1.41655e-91
3.85529e-92
1.04635e-92
2.83197e-93
7.64369e-94
2.05741e-94
5.52261e-95
1.47836e-95
3.94664e-96
1.05073e-96
2.78984e-97
7.38735e-98
1.95086e-98
5.13799e-99
1.34957e-99
3.53536e-100
9.2366e-101
2.40677e-101
6.25465e-102
1.62114e-102
4.19076e-103
1.08049e-103
2.77848e-104
7.12618e-105
1.82293e-105
4.65108e-106
1.18361e-106
3.00425e-107
7.60574e-108
1.92056e-108
4.83722e-109
1.21521e-109
3.04506e-110
7.61081e-111
1.89741e-111
4.71834e-112
1.17036e-112
2.89567e-113
7.14639e-114
1.75927e-114
4.32007e-115
1.05819e-115
2.58554e-116
6.30171e-117
1.53211e-117
3.71573e-118
8.98931e-119
2.1694e-119
5.22258e-120
1.2542e-120
3.00458e-121
7.18032e-122
1.71177e-122
4.07093e-123
9.65805e-124
2.28579e-124
5.39679e-125
1.27113e-125
2.98678e-126
7.00126e-127
1.63724e-127
3.81956e-128
8.88961e-129
2.06406e-129
4.78116e-130
1.10489e-130
2.54732e-131
5.85903e-132
1.34447e-132
3.07793e-133
7.02997e-134
1.60191e-134
3.64176e-135
8.25998e-136
1.86914e-136
4.2199e-137
9.50524e-138
2.13612e-138
4.78952e-139