# vtk DataFile Version 2.0
FlowField
ASCII
DATASET STRUCTURED_GRID
DIMENSIONS 1602 1 52
POINTS 83304 float
0 0 0
0.1 0 0
0.2 0 0
0.3 0 0
0.4 0 0
0.5 0 0
0.6 0 0
0.7 0 0
0.8 0 0
0.9 0 0
1 0 0
1.1 0 0
1.2 0 0
1.3 0 0
1.4 0 0
1.5 0 0
1.6 0 0
1.7 0 0
1.8 0 0
1.9 0 0
2 0 0
2.1 0 0
2.2 0 0
2.3 0 0
2.4 0 0
2.5 0 0
2.6 0 0
2.7 0 0
2.8 0 0
2.9 0 0
3 0 0
3.1 0 0
3.2 0 0
3.3 0 0
3.4 0 0
3.5 0 0
3.6 0 0
3.7 0 0
3.8 0 0
3.9 0 0
4 0 0
4.1 0 0
4.2 0 0
4.3 0 0
4.4 0 0
4.5 0 0
4.6 0 0
4.7 0 0
4.8 0 0
4.9 0 0
5 0 0
5.1 0 0
5.2 0 0
5.3 0 0
5.4 0 0
5.5 0 0
5.6 0 0
5.7 0 0
5.8 0 0
5.9 0 0
6 0 0
6.1 0 0
6.2 0 0
6.3 0 0
6.4 0 0
6.5 0 0
6.6 0 0
6.7 0 0
6.8 0 0
6.9 0 0
7 0 0
7.1 0 0
7.2 0 0
7.3 0 0
7.4 0 0
7.5 0 0
7.6 0 0
7.7 0 0
7.8 0 0
7.9 0 0
8 0 0
8.1 0 0
8.2 0 0
8.3 0 0
8.4 0 0
8.5 0 0
8.6 0 0
8.7 0 0
8.8 0 0
8.9 0 0
9 0 0
9.1 0 0
9.2 0 0
9.3 0 0
9.4 0 0
9.5 0 0
9.6 0 0
9.7 0 0
9.8 0 0
9.9 0 0
10 0 0
10.1 0 0
10.2 0 0
10.3 0 0
10.4 0 0
10.5 0 0
10.6 0 0
10.7 0 0
10.8 0 0
10.9 0 0
11 0 0
11.1 0 0
11.2 0 0
11.3 0 0
11.4 0 0
11.5 0 0
11.6 0 0
11.7 0 0
11.8 0 0
11.9 0 0
12 0 0
12.1 0 0
12.2 0 0
12.3 0 0
12.4 0 0
12.5 0 0
12.6 0 0
12.7 0 0
12.8 0 0
12.9 0 0
13 0 0
13.1 0 0
13.2 0 0
13.3 0 0
13.4 0 0
13.5 0 0
13.6 0 0
13.7 0 0
13.8 0 0
13.9 0 0
14 0 0
14.1 0 0
14.2 0 0
14.3 0 0
14.4 0 0
14.5 0 0
14.6 0 0
14.7 0 0
14.8 0 0
14.9 0 0
15 0 0
15.1 0 0
15.2 0 0
15.3 0 0
15.4 0 0
15.5 0 0
15.6 0 0
15.7 0 0
15.8 0 0
15.9 0 0
16 0 0
16.1 0 0
16.2 0 0
16.3 0 0
16.4 0 0
16.5 0 0
16.6 0 0
16.7 0 0
16.8 0 0
16.9 0 0
17 0 0
17.1 0 0
17.2 0 0
17.3 0 0
17.4 0 0
17.5 0 0
17.6 0 0
17.7 0 0
17.8 0 0
17.9 0 0
18 0 0
18.1 0 0
18.2 0 0
18.3 0 0
18.4 0 0
18.5 0 0
18.6 0 0
18.7 0 0
18.8 0 0
18.9 0 0
19 0 0
19.1 0 0
19.2 0 0
19.3 0 0
19.4 0 0
19.5 0 0
19.6 0 0
19.7 0 0
19.8 0 0
19.9 0 0
20 0 0
20.1 0 0
20.2 0 0
20.3 0 0
20.4 0 0
20.5 0 0
20.6 0 0
20.7 0 0
20.8 0 0
20.9 0 0
21 0 0
21.1 0 0
21.2 0 0
21.3 0 0
21.4 0 0
21.5 0 0
21.6 0 0
21.7 0 0
21.8 0 0
21.9 0 0
22 0 0
22.1 0 0
22.2 0 0
22.3 0 0
22.4 0 0
22.5 0 0
22.6 0 0
22.7 0 0
22.8 0 0
22.9 0 0
23 0 0
23.1 0 0
23.2 0 0
23.3 0 0
23.4 0 0
23.5 0 0
23.6 0 0
23.7 0 0
23.8 0 0
23.9 0 0
24 0 0
24.1 0 0
24.2 0 0
24.3 0 0
24.4 0 0
24.5 0 0
24.6 0 0
24.7 0 0
24.8 0 0
24.9 0 0
25 0 0
25.1 0 0
25.2 0 0
25.3 0 0
25.4 0 0
25.5 0 0
25.6 0 0
25.7 0 0
25.8 0 0
25.9 0 0
26 0 0
26.1 0 0
26.2 0 0
26.3 0 0
26.4 0 0
26.5 0 0
26.6 0 0
26.7 0 0
26.8 0 0
26.9 0 0
27 0 0
27.1 0 0
27.2 0 0
27.3 0 0
27.4 0 0
27.5 0 0
27.6 0 0
27.7 0 0
27.8 0 0
27.9 0 0
28 0 0
28.1 0 0
28.2 0 0
28.3 0 0
28.4 0 0
28.5 0 0
28.6 0 0
28.7 0 0
28.8 0 0
28.9 0 0
29 0 0
29.1 0 0
29.2 0 0
29.3 0 0
29.4 0 0
29.5 0 0
29.6 0 0
29.7 0 0
29.8 0 0
29.9 0 0
30 0 0
30.1 0 0
30.2 0 0
30.3 0 0
30.4 0 0
30.5 0 0
30.6 0 0
30.7 0 0
30.8 0 0
30.9 0 0
31 0 0
31.1 0 0
31.2 0 0
31.3 0 0
31.4 0 0
31.5 0 0
31.6 0 0
31.7 0 0
31.8 0 0
31.9 0 0
32 0 0
32.1 0 0
32.2 0 0
32.3 0 0
32.4 0 0
32.5 0 0
32.6 0 0
32.7 0 0
32.8 0 0
32.9 0 0
33 0 0
33.1 0 0
33.2 0 0
33.3 0 0
33.4 0 0
33.5 0 0
33.6 0 0
33.7 0 0
33.8 0 0
33.9 0 0
34 0 0
34.1 0 0
34.2 0 0
34.3 0 0
34.4 0 0
34.5 0 0
34.6 0 0
34.7 0 0
34.8 0 0
34.9 0 0
35 0 0
35.1 0 0
35.2 0 0
35.3 0 0
35.4 0 0
35.5 0 0
35.6 0 0
35.7 0 0
35.8 0 0
35.9 0 0
36 0 0
36.1 0 0
36.2 0 0
36.3 0 0
36.4 0 0
36.5 0 0
36.6 0 0
36.7 0 0
36.8 0 0
36.9 0 0
37 0 0
37.1 0 0
37.2 0 0
37.3 0 0
37.4 0 0
37.5 0 0
37.6 0 0
37.7 0 0
37.8 0 0
37.9 0 0
38 0 0
38.1 0 0
38.2 0 0
38.3 0 0
38.4 0 0
38.5 0 0
38.6 0 0
38.7 0 0
38.8 0 0
38.9 0 0
39 0 0
39.1 0 0
39.2 0 0
39.3 0 0
39.4 0 0
39.5 0 0
39.6 0 0
39.7 0 0
39.8 0 0
39.9 0 0
40 0 0
40.1 0 0
40.2 0 0
40.3 0 0
40.4 0 0
40.5 0 0
40.6 0 0
40.7 0 0
40.8 0 0
40.9 0 0
41 0 0
41.1 0 0
41.2 0 0
41.3 0 0
41.4 0 0
41.5 0 0
41.6 0 0
41.7 0 0
41.8 0 0
41.9 0 0
42 0 0
42.1 0 0
42.2 0 0
42.3 0 0
42.4 0 0
42.5 0 0
42.6 0 0
42.7 0 0
42.8 0 0
42.9 0 0
43 0 0
43.1 0 0
43.2 0 0
43.3 0 0
43.4 0 0
43.5 0 0
43.6 0 0
43.7 0 0
43.8 0 0
43.9 0 0
44 0 0
44.1 0 0
44.2 0 0
44.3 0 0
44.4 0 0
44.5 0 0
44.6 0 0
44.7 0 0
44.8 0 0
44.9 0 0
45 0 0
45.1 0 0
45.2 0 0
45.3 0 0
45.4 0 0
45.5 0 0
45.6 0 0
45.7 0 0
45.8 0 0
45.9 0 0
46 0 0
46.1 0 0
46.2 0 0
46.3 0 0
46.4 0 0
46.5 0 0
46.6 0 0
46.7 0 0
46.8 0 0
46.9 0 0
47 0 0
47.1 0 0
47.2 0 0
47.3 0 0
47.4 0 0
47.5 0 0
47.6 0 0
47.7 0 0
47.8 0 0
47.9 0 0
48 0 0
48.1 0 0
48.2 0 0
48.3 0 0
48.4 0 0
48.5 0 0
48.6 0 0
48.7 0 0
48.8 0 0
48.9 0 0
49 0 0
49.1 0 0
49.2 0 0
49.3 0 0
49.4 0 0
49.5 0 0
49.6 0 0
49.7 0 0
49.8 0 0
49.9 0 0
50 0 0
50.1 0 0
50.2 0 0
50.3 0 0
50.4 0 0
50.5 0 0
50.6 0 0
50.7 0 0
50.8 0 0
50.9 0 0
51 0 0
51.1 0 0
51.2 0 0
51.3 0 0
51.4 0 0
51.5 0 0
51.6 0 0
51.7 0 0
51.8 0 0
51.9 0 0
52 0 0
52.1 0 0
52.2 0 0
52.3 0 0
52.4 0 0
52.5 0 0
52.6 0 0
52.7 0 0
52.8 0 0
52.9 0 0
53 0 0
53.1 0 0
53.2 0 0
53.3 0 0
53.4 0 0
53.5 0 0
53.6 0 0
53.7 0 0
53.8 0 0
53.9 0 0
54 0 0
54.1 0 0
54.2 0 0
54.3 0 0
54.4 0 0
54.5 0 0
54.6 0 0
54.7 0 0
54.8 0 0
54.9 0 0
55 0 0
55.1 0 0
55.2 0 0
55.3 0 0
55.4 0 0
55.5 0 0
55.6 0 0
55.7 0 0
55.8 0 0
55.9 0 0
56 0 0
56.1 0 0
56.2 0 0
56.3 0 0
56.4 0 0
56.5 0 0
56.6 0 0
56.7 0 0
56.8 0 0
56.9 0 0
57 0 0
57.1 0 0
57.2 0 0
57.3 0 0
57.4 0 0
57.5 0 0
57.6 0 0
57.7 0 0
57.8 0 0
57.9 0 0
58 0 0
58.1 0 0
58.2 0 0
58.3 0 0
58.4 0 0
58.5 0 0
58.6 0 0
58.7 0 0
58.8 0 0
58.9 0 0
59 0 0
59.1 0 0
59.2 0 0
59.3 0 0
59.4 0 0
59.5 0 0
59.6 0 0
59.7 0 0
59.8 0 0
59.9 0 0
60 0 0
60.1 0 0
60.2 0 0
60.3 0 0
60.4 0 0
60.5 0 0
60.6 0 0
60.7 0 0
60.8 0 0
60.9 0 0
61 0 0
61.1 0 0
61.2 0 0
61.3 0 0
61.4 0 0
61.5 0 0
61.6 0 0
61.7 0 0
61.8 0 0
61.9 0 0
62 0 0
62.1 0 0
62.2 0 0
62.3 0 0
62.4 0 0
62.5 0 0
62.6 0 0
62.7 0 0
62.8 0 0
62.9 0 0
63 0 0
63.1 0 0
63.2 0 0
63.3 0 0
63.4 0 0
63.5 0 0
63.6 0 0
63.7 0 0
63.8 0 0
63.9 0 0
64 0 0
64.1 0 0
64.2 0 0
64.3 0 0
64.4 0 0
64.5 0 0
64.6 0 0
64.7 0 0
64.8 0 0
64.9 0 0
65 0 0
65.1 0 0
65.2 0 0
65.3 0 0
65.4 0 0
65.5 0 0
65.6 0 0
65.7 0 0
65.8 0 0
65.9 0 0
66 0 0
66.1 0 0
66.2 0 0
66.3 0 0
66.4 0 0
66.5 0 0
66.6 0 0
66.7 0 0
66.8 0 0
66.9 0 0
67 0 0
67.1 0 0
67.2 0 0
67.3 0 0
67.4 0 0
67.5 0 0
67.6 0 0
67.7 0 0
67.8 0 0
67.9 0 0
68 0 0
68.1 0 0
68.2 0 0
68.3 0 0
68.4 0 0
68.5 0 0
68.6 0 0
68.7 0 0
68.8 0 0
68.9 0 0
69 0 0
69.1 0 0
69.2 0 0
69.3 0 0
69.4 0 0
69.5 0 0
69.6 0 0
69.7 0 0
69.8 0 0
69.9 0 0
70 0 0
70.1 0 0
70.2 0 0
70.3 0 0
70.4 0 0
70.5 0 0
70.6 0 0
70.7 0 0
70.8 0 0
70.9 0 0
71 0 0
71.1 0 0
71.2 0 0
71.3 0 0
71.4 0 0
71.5 0 0
71.6 0 0
71.7 0 0
71.8 0 0
71.9 0 0
72 0 0
72.1 0 0
72.2 0 0
72.3 0 0
72.4 0 0
72.5 0 0
72.6 0 0
72.7 0 0
72.8 0 0
72.9 0 0
73 0 0
73.1 0 0
73.2 0 0
73.3 0 0
73.4 0 0
73.5 0 0
73.6 0 0
73.7 0 0
73.8 0 0
73.9 0 0
74 0 0
74.1 0 0
74.2 0 0
74.3 0 0
74.4 0 0
74.5 0 0
74.6 0 0
74.7 0 0
74.8 0 0
74.9 0 0
75 0 0
75.1 0 0
75.2 0 0
75.3 0 0
75.4 0 0
75.5 0 0
75.6 0 0
75.7 0 0
75.8 0 0
75.9 0 0
76 0 0
76.1 0 0
76.2 0 0
76.3 0 0
76.4 0 0
76.5 0 0
76.6 0 0
76.7 0 0
76.8 0 0
76.9 0 0
77 0 0
77.1 0 0
77.2 0 0
77.3 0 0
77.4 0 0
77.5 0 0
77.6 0 0
77.7 0 0
77.8 0 0
77.9 0 0
78 0 0
78.1 0 0
78.2 0 0
78.3 0 0
78.4 0 0
78.5 0 0
78.6 0 0
78.7 0 0
78.8 0 0
78.9 0 0
79 0 0
79.1 0 0
79.2 0 0
79.3 0 0
79.4 0 0
79.5 0 0
79.6 0 0
79.7 0 0
79.8 0 0
79.9 0 0
80 0 0
80.1 0 0
80.2 0 0
80.3 0 0
80.4 0 0
80.5 0 0
80.6 0 0
80.7 0 0
80.8 0 0
80.9 0 0
81 0 0
81.1 0 0
81.2 0 0
81.3 0 0
81.4 0 0
81.5 0 0
81.6 0 0
81.7 0 0
81.8 0 0
81.9 0 0
82 0 0
82.1 0 0
82.2 0 0
82.3 0 0
82.4 0 0
82.5 0 0
82.6 0 0
82.7 0 0
82.8 0 0
82.9 0 0
83 0 0
83.1 0 0
83.2 0 0
83.3 0 0
83.4 0 0
83.5 0 0
83.6 0 0
83.7 0 0
83.8 0 0
83.9 0 0
84 0 0
84.1 0 0
84.2 0 0
84.3 0 0
84.4 0 0
84.5 0 0
84.6 0 0
84.7 0 0
84.8 0 0
84.9 0 0
85 0 0
85.1 0 0
85.2 0 0
85.3 0 0
85.4 0 0
85.5 0 0
85.6 0 0
85.7 0 0
85.8 0 0
85.9 0 0
86 0 0
86.1 0 0
86.2 0 0
86.3 0 0
86.4 0 0
86.5 0 0
86.6 0 0
86.7 0 0
86.8 0 0
86.9 0 0
87 0 0
87.1 0 0
87.2 0 0
87.3 0 0
87.4 0 0
87.5 0 0
87.6 0 0
87.7 0 0
87.8 0 0
87.9 0 0
88 0 0
88.1 0 0
88.2 0 0
88.3 0 0
88.4 0 0
88.5 0 0
88.6 0 0
88.7 0 0
88.8 0 0
88.9 0 0
89 0 0
89.1 0 0
89.2 0 0
89.3 0 0
89.4 0 0
89.5 0 0
89.6 0 0
89.7 0 0
89.8 0 0
89.9 0 0
90 0 0
90.1 0 0
90.2 0 0
90.3 0 0
90.4 0 0
90.5 0 0
90.6 0 0
90.7 0 0
90.8 0 0
90.9 0 0
91 0 0
91.1 0 0
91.2 0 0
91.3 0 0
91.4 0 0
91.5 0 0
91.6 0 0
91.7 0 0
91.8 0 0
91.9 0 0
92 0 0
92.1 0 0
92.2 0 0
92.3 0 0
92.4 0 0
92.5 0 0
92.6 0 0
92.7 0 0
92.8 0 0
92.9 0 0
93 0 0
93.1 0 0
93.2 0 0
93.3 0 0
93.4 0 0
93.5 0 0
93.6 0 0
93.7 0 0
93.8 0 0
93.9 0 0
94 0 0
94.1 0 0
94.2 0 0
94.3 0 0
94.4 0 0
94.5 0 0
94.6 0 0
94.7 0 0
94.8 0 0
94.9 0 0
95 0 0
95.1 0 0
95.2 0 0
95.3 0 0
95.4 0 0
95.5 0 0
95.6 0 0
95.7 0 0
95.8 0 0
95.9 0 0
96 0 0
96.1 0 0
96.2 0 0
96.3 0 0
96.4 0 0
96.5 0 0
96.6 0 0
96.7 0 0
96.8 0 0
96.9 0 0
97 0 0
97.1 0 0
97.2 0 0
97.3 0 0
97.4 0 0
97.5 0 0
97.6 0 0
97.7 0 0
97.8 0 0
97.9 0 0
98 0 0
98.1 0 0
98.2 0 0
98.3 0 0
98.4 0 0
98.5 0 0
98.6 0 0
98.7 0 0
98.8 0 0
98.9 0 0
99 0 0
99.1 0 0
99.2 0 0
99.3 0 0
99.4 0 0
99.5 0 0
99.6 0 0
99.7 0 0
99.8 0 0
99.9 0 0
100 0 0
100.1 0 0
100.2 0 0
100.3 0 0
100.4 0 0
100.5 0 0
100.6 0 0
100.7 0 0
100.8 0 0
100.9 0 0
101 0 0
101.1 0 0
101.2 0 0
101.3 0 0
101.4 0 0
101.5 0 0
101.6 0 0
101.7 0 0
101.8 0 0
101.9 0 0
102 0 0
102.1 0 0
102.2 0 0
102.3 0 0
102.4 0 0
102.5 0 0
102.6 0 0
102.7 0 0
102.8 0 0
102.9 0 0
103 0 0
103.1 0 0
103.2 0 0
103.3 0 0
103.4 0 0
103.5 0 0
103.6 0 0
103.7 0 0
103.8 0 0
103.9 0 0
104 0 0
104.1 0 0
104.2 0 0
104.3 0 0
104.4 0 0
104.5 0 0
104.6 0 0
104.7 0 0
104.8 0 0
104.9 0 0
105 0 0
105.1 0 0
105.2 0 0
105.3 0 0
105.4 0 0
105.5 0 0
105.6 0 0
105.7 0 0
105.8 0 0
105.9 0 0
106 0 0
106.1 0 0
106.2 0 0
106.3 0 0
106.4 0 0
106.5 0 0
106.6 0 0
106.7 0 0
106.8 0 0
106.9 0 0
107 0 0
107.1 0 0
107.2 0 0
107.3 0 0
107.4 0 0
107.5 0 0
107.6 0 0
107.7 0 0
107.8 0 0
107.9 0 0
108 0 0
108.1 0 0
108.2 0 0
108.3 0 0
108.4 0 0
108.5 0 0
108.6 0 0
108.7 0 0
108.8 0 0
108.9 0 0
109 0 0
109.1 0 0
109.2 0 0
109.3 0 0
109.4 0 0
109.5 0 0
109.6 0 0
109.7 0 0
109.8 0 0
109.9 0 0
110 0 0
110.1 0 0
110.2 0 0
110.3 0 0
110.4 0 0
110.5 0 0
110.6 0 0
110.7 0 0
110.8 0 0
110.9 0 0
111 0 0
111.1 0 0
111.2 0 0
111.3 0 0
111.4 0 0
111.5 0 0
111.6 0 0
111.7 0 0
111.8 0 0
111.9 0 0
112 0 0
[...]
POINT_DATA 83304

SCALARS pressure float 1
LOOKUP_TABLE default
0
0
0
0
0
0
0
0
0
0
0
0
0
0
0
0
0
0
0
0
0
0
0
0
0
0
0
0
0
0
0
0
0
0
0
0
0
0
0
0
0
0
0
0
0
0
0
0
0
0
0
0
0
0
0
0
0
0
0
0
0
0
0
0
0
0
0
0
0
0
0
0
0
0
0
0
0
0
0
0
0
0
0
0
0
0
0
0
0
0
0
0
0
0
0
0
0
0
0
0
0
0
0
0
0
0
0
0
0
0
0
0
0
0
0
0
0
0
0
0
0
0
0
0
0
0
0
0
0
0
0
0
0
0
0
0
0
0
0
0
0
0
0
0
0
0
0
0
0
0
0
0
0
0
0
0
0
0
0
0
0
0
0
0
0
0
0
0
0
0
0
0
0
0
0
0
0
0
0
0
0
0
0
0
0
0
0
0
0
0
0
0
0
0
0
0
0
0
0
0
0
0
0
0
0
0
0
0
0
0
0
0
0
0
0
0
0
0
0
0
0
0
0
0
0
0
0
0
0
0
0
0
0
0
0
0
0
0
0
0
0
0
0
0
0
0
0
0
0
0
0
0
0
0
0
0
0
0
0
0
0
0
0
0
0
0
0
0
0
0
0
0
0
0
0
0
0
0
0
0
0
0
0
0
0
0
0
0
0
0
0
0
0
0
0
0
0
0
0
0
0
0
0
0
0
0
0
0
0
0
0
0
0
0
0
0
0
0
0
0
0
0
0
0
0
0
0
0
0
0
0
0
0
0
0
0
0
0
0
0
0
0
0
0
0
0
0
0
0
0
0
0
0
0
0
0
0
0
0
0
0
0
0
0
0
0
0
0
0
0
0
0
0
0
0
0
0
0
0
0
0
0
0
0
0
0
0
0
0
0
0
0
0
0
0
0
0
0
0
0
0
0
0
0
0
0
0
0
0
0
0
0
0
0
0
0
0
0
0
0
0
0
0
0
0
0
0
0
0
0
0
0
0
0
0
0
0
0
0
0
0
0
0
0
0
0
0
0
0
0
0
0
0
0
0
0
0
0
0
0
0
0
0
0
0
0
0
0
0
0
0
0
0
0
0
0
0
0
0
0
0
0
0
0
0
0
0
0
0
0
0
0
0
0
0
0
0
0
0
0
0
0
0
0
0
0
0
0
0
0
0
0
0
0
0
0
0
0
0
0
0
0
0
0
0
0
0
0
0
0
0
0
0
0
0
0
0
0
0
0
0
0
0
0
0
0
0
0
0
0
0
0
0
0
0
0
0
0
0
0
0
0
0
0
0
0
0
0
0
0
0
0
0
0
0
0
0
0
0
0
0
0
0
0
0
0
0
0
0
0
0
0
0
0
0
0
0
0
0
0
0
0
0
0
0
0
0
0
0
0
0
0
0
0
0
0
0
0
0
0
0
0
0
0
0
0
0
0
0
0
0
0
0
0
0
0
0
0
0
0
0
0
0
0
0
0
0
0
0
0
0
0
0
0
0
0
0
0
0
0
0
0
0
0
0
0
0
0
0
0
0
0
0
0
0
0
0
0
0
0
0
0
0
0
0
0
0
0
0
0
0
0
0
0
0
0
0
0
0
0
0
0
0
0
0
0
0
0
0
0
0
0
0
0
0
0
0
0
0
0
0
0
0
0
0
0
0
0
0
0
0
0
0
0
0
0
0
0
0
0
0
0
0
0
0
0
0
0
0
0
0
0
0
0
0
0
0
0
0
0
0
0
0
0
0
0
0
0
0
0
0
0
0
0
0
0
0
0
0
0
0
0
0
0
0
0
0
0
0
0
0
0
0
0
0
0
0
0
0
0
0
0
0
0
0
0
0
0
0
0
0
0
0
0
0
0
0
0
0
0
0
0
0
0
0
0
0
0
0
0
0
0
0
0
0
0
0
0
0
0
0
0
0
0
0
0
0
0
0
0
0
0
0
0
0
0
0
0
0
0
0
0
0
0
0
0
0
0
0
0
0
0
0
0
0
0
0
0
0
0
0
0
0
0
0
0
0
0
0
0
0
0
0
0
0
0
0
0
0
0
0
0
0
0
0
0
0
0
0
0
0
0
0
0
0
0
0
0
0
0
0
0
0
0
0
0
0
0
0
0
0
0
0
0
0
0
0
0
0
0
0
0
0
0
0
0
0
0
0
0
0
0
0
0
0
0
0
0
0
0
0
0
0
0
0
0
0
0
0
0
0
0
0
0
0
0
0
0
0
0
0
0
0
0
0
0
0
0
0
0
0
0
0
0
0
0
0
0
0
0
0
0
0
0
0
0
0
0
0
0
0
0
0
0
0
0
0
0
0
0
0
0
0
0
0
0
0
0
0
0
0
0
0
0
0
0
0
0
0
0
0
0
0
0
0
0
0
0
0
0
0
0
0
0
0
0
0
0
0
0
0
0
0
0
0
0
0
0
0
0
0
0
0
0
0
0
0
0
0
0
0
0
0
0
0
0
0
0
0
0
0
0
0
0
0
0
0
0
0
0
0
0
0
0
0
0
0
0
0
0
0
0
0
0
0
0
0
0
0
0
0
0
0
0
0
0
0
0
0
0
0
0
0
0
0
0
0
0
0
0
0
0
0
0
0
0
0
0
0
0
0
0
0
0
0
0
0
0
0
0
0
0
0
0
0
0
0
0
0
0
0
0
0
0
0
0
0
0
0
0
0
0
0
0
0
0
0
0
0
0
0
0
0
0
0
0
0
0
0
0
0
0
0
0
0
0
0
0
0
0
0
0
0
0
0
0
0
0
0
0
0
0
0
0
0
0
0
0
0
0
0
0
0
0
0
0
0
0
0
0
0
0
0
0
0
0
0
0
0
0
0
0
0
0
0
0
0
0
0
0
0
0
0
0
0
0
0
0
0
0
0
0
0
0
0
0
0
0
0
0
0
0
0
0
0
0
0
0
0
0
0
0
0
0
0
0
0
0
0
0
0
0
0
0
0
0
0
0
0
0
0
0
0
0
0
0
0
0
0
0
0
0
0
0
0
0
0
0
0
0
0
0
0
0
0
0
0
0
0
0
0
0
0
0
0
0
0
0
0
0
0
0
0
0
0
0
0
0
0
0
0
0
0
0
0
0
0
0
0
0
0
0
0
0
0
0
0
0
0
0
0
0
0
0
0
0
0
0
0
0
0
0
0
0
0
0
0
0
0
0
0
0
0
0
0
0
0
0
0
0
0
0
0
0
0
0
0
0
0
0
0
0
0
0
0
0
0
0
0
0
0
0
0
0
0
0
0
0
0
0
0
0
0
0
0
0
0
0
0
0
0
0
0
0
0
0
0
0
0
0
0
0
0
0
0
0
0
0
0
0
0
0
0
0
0
0
0
0
0
0
0
0
0
0
0
0
0
0
0
0
0
0
0
0
0
0
0
0
0
0
0
0
0
0
0
0
0
0
0
0
0
0
0
0
0
0
0
0
0
0
0
0
0
0
0
0
0
0
0
0
0
0
0
0
0
0
0
0
0
0
0
0
0
0
0
0
0
0
0
0
0
0
0
0
0
0
0
0
0
0
0
0
0
0
0
0
0
0
0
0
0
0
0
0
0
0
0
0
0
0
0
0
0
0
0
0
0
0
0
0
0
0
0
0
0
0
0
0
0
0
0
0
0
0.0776415
0.052903
0.0436505
0.0357426
0.03048
0.0271088
0.0248019
0.023116
0.0218008
0.0207277
0.0198235
0.0190436
0.0183596
0.0177519
0.0172066
0.0167134
0.0162643
0.0158532
0.0154749
0.0151254
0.0148012
0.0144993
0.0142174
0.0139533
0.0137051
0.0134714
0.0132506
0.0130416
0.0128434
0.0126549
0.0124753
0.0123039
0.0121401
0.0119833
0.0118328
0.0116884
0.0115494
0.0114156
0.0112866
0.0111621
0.0110418
0.0109254
0.0108128
0.0107037
0.0105979
0.0104952
0.0103955
0.0102987
0.0102045
0.0101129
0.0100238
0.00993702
0.00985251
0.00977015
0.00968989
0.00961163
0.00953532
0.00946088
0.00938825
0.00931738
0.00924821
0.0091807
0.0091148
0.00905046
0.00898765
0.00892633
0.00886645
0.008808
0.00875092
0.0086952
0.00864079
0.00858769
0.00853584
0.00848524
0.00843585
0.00838766
0.00834063
0.00829474
0.00824997
0.0082063
0.00816371
0.00812218
0.00808168
0.00804219
0.0080037
0.00796619
0.00792963
0.007894
0.0078593
0.00782549
0.00779256
0.0077605
0.00772927
0.00769888
0.00766929
0.00764049
0.00761246
0.00758519
0.00755865
0.00753284
0.00750773
0.00748331
0.00745957
0.00743648
0.00741402
0.0073922
0.00737098
0.00735036
0.00733032
0.00731084
0.00729192
0.00727353
0.00725566
0.00723831
0.00722145
0.00720507
0.00718916
0.00717371
0.00715871
0.00714414
0.00712999
0.00711624
0.0071029
0.00708994
0.00707735
0.00706513
0.00705326
0.00704174
0.00703056
0.0070197
0.00700917
0.00699895
0.00698904
0.00697942
0.0069701
0.00696106
0.0069523
0.0069438
0.00693556
0.00692757
0.00691982
0.00691231
0.00690502
0.00689797
0.00689115
0.00688456
0.00687822
0.00687213
0.00686628
0.0068607
0.00685535
0.00685024
0.00684531
0.00684053
0.00683583
0.00683114
0.00682637
0.00682144
0.00681633
0.00681101
0.00680558
0.00680019
0.00679513
0.00679084
0.00678789
0.00678698
0.0067889
0.00679446
0.00680436
0.00681908
0.00683865
0.00686247
0.00688903
0.00691569
0.00693848
0.00695192
0.00694896
0.00692106
0.00685844
0.00675062
0.00658713
0.00635863
0.00605839
0.00568405
0.00523973
0.00473847
0.00420455
0.00367562
0.00320411
0.00285721
0.00271499
0.00286625
0.00340188
0.00440677
0.00595057
0.00807917
0.0108094
0.0141257
0.0179796
0.022293
0.0269664
0.0318838
0.0369129
0.0419152
0.0467618
0.0513298
0.0554846
0.059089
0.0620479
0.0643408
0.0659989
0.0670555
0.0675196
0.0673882
0.0666713
0.0654039
0.0636426
0.0614561
0.0589175
0.0560999
0.0530742
0.049908
0.0466642
0.0433997
0.0401647
0.0370014
0.0339445
0.0310208
0.0282497
0.0256443
0.0232121
0.0209557
0.0188739
0.0169627
0.0152156
0.0136247
0.0121811
0.010875
0.00969647
0.00863567
0.00768287
0.0068287
0.00606426
0.00538117
0.0047716
0.00422832
0.00374464
0.00331447
0.00293222
0.00259284
0.00229174
0.00202478
0.00178824
0.00157878
0.00139338
0.00122937
0.00108434
0.000956143
0.000842875
0.000742833
0.000654501
0.000576534
0.000507737
0.000447048
0.000393527
0.00034634
0.000304747
0.000268095
0.000235804
0.000207362
0.000182315
0.000160263
0.000140852
0.000123769
0.000108739
9.55159e-05
8.38861e-05
7.36593e-05
6.46679e-05
5.67642e-05
4.98179e-05
4.37141e-05
3.83516e-05
3.36412e-05
2.95044e-05
2.5872e-05
2.26829e-05
1.98837e-05
1.7427e-05
1.52714e-05
1.33802e-05
1.17213e-05
1.02664e-05
8.99066e-06
7.87216e-06
6.89171e-06
6.03241e-06
5.27941e-06
4.61967e-06
4.04174e-06
3.53555e-06
3.09227e-06
2.70415e-06
2.36437e-06
2.06697e-06
1.80669e-06
1.57895e-06
1.3797e-06
1.20541e-06
1.05298e-06
9.19682e-07
8.03138e-07
7.01256e-07
6.12206e-07
5.34384e-07
4.66385e-07
4.06978e-07
3.55085e-07
3.09763e-07
2.70185e-07
2.3563e-07
2.05464e-07
1.79134e-07
1.56155e-07
1.36104e-07
1.1861e-07
1.0335e-07
9.00407e-08
7.84338e-08
6.83133e-08
5.94902e-08
5.17993e-08
4.50962e-08
3.92551e-08
3.41656e-08
2.97319e-08
2.58699e-08
2.25064e-08
1.95775e-08
1.70274e-08
1.48074e-08
1.28751e-08
1.11934e-08
9.72997e-09
8.45675e-09
7.34913e-09
6.38572e-09
5.54785e-09
4.81926e-09
4.1858e-09
3.63511e-09
3.15644e-09
2.74044e-09
2.37895e-09
2.06487e-09
1.79202e-09
1.55502e-09
1.34918e-09
1.17044e-09
1.01524e-09
8.80506e-10
7.63553e-10
6.62049e-10
5.73964e-10
4.97534e-10
4.31226e-10
3.73707e-10
3.23818e-10
2.80554e-10
2.43038e-10
2.10513e-10
1.82317e-10
1.57877e-10
1.36697e-10
1.18342e-10
1.0244e-10
8.86628e-11
7.67291e-11
6.63932e-11
5.74425e-11
4.96922e-11
4.29823e-11
3.71738e-11
3.21462e-11
2.77951e-11
2.403e-11
2.07723e-11
1.7954e-11
1.55162e-11
1.34077e-11
1.15843e-11
1.00077e-11
8.64457e-12
7.4662e-12
6.44766e-12
5.5674e-12
4.80672e-12
4.14946e-12
3.58164e-12
3.09114e-12
2.66749e-12
2.30162e-12
1.98569e-12
1.71291e-12
1.47743e-12
1.27417e-12
1.09873e-12
9.47337e-13
8.16704e-13
7.03998e-13
6.06772e-13
5.22909e-13
4.50582e-13
3.88212e-13
3.34434e-13
2.8807e-13
2.48104e-13
2.13657e-13
1.83969e-13
1.58388e-13
1.36346e-13
1.17358e-13
1.01002e-13
8.69141e-14
7.47823e-14
6.4336e-14
5.5342e-14
4.75995e-14
4.09351e-14
3.51994e-14
3.02636e-14
2.60167e-14
2.2363e-14
1.922e-14
1.65166e-14
1.41917e-14
1.21926e-14
1.04737e-14
8.99598e-15
7.72579e-15
6.63408e-15
5.69591e-15
4.88979e-15
4.1972e-15
3.60225e-15
3.09123e-15
2.65237e-15
2.27551e-15
1.95196e-15
1.6742e-15
1.43579e-15
1.23118e-15
1.0556e-15
9.04965e-16
7.75739e-16
6.64894e-16
5.69823e-16
4.88281e-16
4.18335e-16
3.58326e-16
3.06829e-16
2.62626e-16
2.24684e-16
1.92127e-16
1.64214e-16
1.40319e-16
1.19907e-16
1.02518e-16
8.77542e-17
7.52631e-17
6.47336e-17
5.58833e-17
4.84461e-17
4.2159e-17
3.67504e-17
3.19394e-17
2.74507e-17
2.3051e-17
1.86002e-17
1.41063e-17
9.76201e-18
5.93889e-18
3.12419e-18
1.79817e-18
2.27302e-18
4.53415e-18
8.13671e-18
1.22063e-17
1.5571e-17
1.70159e-17
1.56087e-17
1.10133e-17
3.69322e-18
-5.07568e-18
-1.34192e-17
-1.92806e-17
-2.09468e-17
-1.75506e-17
-9.40322e-18
1.95557e-18
1.40334e-17
2.39424e-17
2.91089e-17
2.79546e-17
2.03635e-17
7.79469e-18
-7.00567e-18
-2.06378e-17
-2.98721e-17
-3.2454e-17
-2.76807e-17
-1.65963e-17
-1.75045e-18
1.3419e-17
2.54216e-17
3.15557e-17
3.0543e-17
2.28018e-17
1.02998e-17
-3.96424e-18
-1.67075e-17
-2.51475e-17
-2.76278e-17
-2.39432e-17
-1.53005e-17
-3.94898e-18
7.41066e-18
1.62795e-17
2.09164e-17
2.06724e-17
1.60421e-17
8.4475e-18
-1.72868e-19
-7.85125e-18
-1.30351e-17
-1.4889e-17
-1.34001e-17
-9.28486e-18
-3.74315e-18
1.86697e-18
6.34813e-18
8.90519e-18
9.26465e-18
7.66184e-18
4.71724e-18
1.24568e-18
-1.94883e-18
-4.24479e-18
-5.3083e-18
-5.11877e-18
-3.92227e-18
-2.13477e-18
-2.24957e-19
1.39431e-18
2.44352e-18
2.81163e-18
2.5489e-18
1.82648e-18
8.77957e-19
-6.13764e-20
-8.03853e-19
-1.23909e-18
-1.34148e-18
-1.15837e-18
-7.85366e-19
-3.36629e-19
8.24606e-20
3.95024e-19
5.62257e-19
5.83043e-19
4.85859e-19
3.1639e-19
1.24394e-19
-4.72893e-20
-1.69776e-19
-2.30697e-19
-2.32787e-19
-1.89744e-19
-1.20852e-19
-4.57811e-20
1.94256e-20
6.46385e-20
8.61727e-20
8.58928e-20
6.94334e-20
4.41224e-20
1.71019e-20
-6.02363e-21
-2.18807e-20
-2.93936e-20
-2.938e-20
-2.38817e-20
-1.54353e-20
-6.44537e-21
1.24429e-21
6.55107e-21
9.14905e-21
9.31851e-21
7.72014e-21
5.1597e-21
2.39225e-21
-7.31579e-24
-1.70126e-21
-2.58361e-21
-2.73185e-21
-2.33769e-21
-1.63668e-21
-8.50533e-22
-1.49542e-22
3.63766e-22
6.53134e-22
7.34939e-22
6.58818e-22
4.88038e-22
2.83425e-22
9.28235e-23
-5.36799e-23
-1.43675e-22
-1.79066e-22
-1.71106e-22
-1.35304e-22
-8.71782e-23
-3.9405e-23
-4.25921e-25
2.57001e-23
3.85852e-23
4.03592e-23
3.44386e-23
2.44719e-23
1.35986e-23
4.05313e-24
-2.93088e-24
-7.00063e-24
-8.44448e-24
-7.91843e-24
-6.20056e-24
-4.00876e-24
-1.89322e-24
-1.96967e-25
9.32267e-25
1.49913e-24
1.60561e-24
1.39808e-24
1.02546e-24
6.11869e-25
2.43676e-25
-3.20598e-26
-2.01559e-25
-2.74577e-25
-2.74049e-25
-2.27214e-25
-1.59249e-25
-8.96356e-26
-3.08775e-26
1.107e-26
3.53805e-26
4.457e-26
4.27982e-26
3.45253e-26
2.36266e-26
1.29465e-26
4.20279e-27
-1.87648e-27
-5.29679e-27
-6.51275e-27
-6.1762e-27
-4.94799e-27
-3.38167e-27
-1.87108e-27
-6.46011e-28
2.02251e-28
6.81757e-28
8.59174e-28
8.25235e-28
6.69831e-28
4.67191e-28
2.6966e-28
1.07693e-28
-6.43475e-30
-7.33435e-29
-1.01219e-28
-1.01371e-28
-8.50768e-29
-6.17168e-29
-3.79899e-29
-1.79043e-29
-3.22016e-30
5.91355e-30
1.03171e-29
1.12425e-29
9.98795e-30
7.66491e-30
5.0938e-30
2.79145e-30
1.01402e-30
-1.75114e-31
-8.34309e-31
-1.08267e-30
-1.05492e-30
-8.72877e-31
-6.31212e-31
-3.93716e-31
-1.96207e-31
-5.27504e-32
3.72553e-32
8.26618e-32
9.55873e-32
8.80596e-32
7.01307e-32
4.91287e-32
2.96751e-32
1.41299e-32
3.20587e-33
-3.42324e-33
-6.61419e-33
-7.38534e-33
-6.68445e-33
-5.27033e-33
-3.67702e-33
-2.22952e-33
-1.08571e-33
-2.8604e-34
2.00412e-34
4.39176e-34
5.04674e-34
4.6464e-34
3.72597e-34
2.65951e-34
1.67473e-34
8.83897e-35
3.18801e-35
-3.7623e-36
-2.26465e-35
-2.95591e-35
-2.89206e-35
-2.42763e-35
-1.81549e-35
-1.2149e-35
-7.10235e-36
-3.32606e-36
-7.9705e-37
6.84289e-37
1.38222e-36
1.55582e-36
1.4223e-36
1.14377e-36
8.28518e-37
5.39862e-37
3.07653e-37
1.39456e-37
2.98618e-38
-3.26327e-38
-6.10501e-38
-6.72891e-38
-6.08928e-38
-4.87503e-38
-3.53347e-38
-2.31879e-38
-1.34627e-38
-6.41256e-39
-1.78223e-39
9.12762e-40
2.2061e-39
2.5794e-39
2.41701e-39
1.99672e-39
1.50053e-39
1.03424e-39
6.48794e-40
3.59239e-40
1.59866e-40
3.49961e-41
-3.39761e-41
-6.45234e-41
-7.10549e-41
-6.43585e-41
-5.18321e-41
-3.80868e-41
-2.56532e-41
-1.564e-41
-8.27263e-42
-3.29407e-42
-2.37557e-43
1.40469e-42
2.08986e-42
2.18515e-42
1.96047e-42
1.59848e-42
1.21191e-42
8.62264e-43
5.76346e-43
3.59596e-43
2.05771e-43
1.03484e-43
4.02417e-44
4.63909e-45
-1.26681e-44
-1.87496e-44
-1.85969e-44
-1.55003e-44
-1.14649e-44
-7.59188e-45
-4.38832e-45
-2.00184e-45
-3.8452e-46
5.99711e-46
1.11046e-45
1.29603e-45
1.27802e-45
1.14758e-45
9.67796e-46
7.78845e-46
6.03718e-46
4.53452e-46
3.31388e-46
2.36372e-46
1.64976e-46
1.12942e-46
7.60408e-47
5.05128e-47
3.32501e-47
2.18153e-47
1.43761e-47
9.60509e-48
6.5715e-48
4.64287e-48
3.40216e-48
2.58252e-48
2.01828e-48
1.60968e-48
1.29838e-48
1.05114e-48
8.49267e-49
6.82158e-49
5.43418e-49
4.2874e-49
3.34788e-49
2.58682e-49
1.97789e-49
1.49685e-49
1.12158e-49
8.3237e-50
6.1207e-50
4.46118e-50
3.22421e-50
2.3114e-50
1.64418e-50
1.16087e-50
8.13777e-51
5.66541e-51
3.91808e-51
2.69235e-51
1.83867e-51
1.24818e-51
8.42438e-52
5.65404e-52
3.7741e-52
2.50593e-52
1.65534e-52
1.088e-52
7.11626e-53
4.63237e-53
3.00147e-53
1.93594e-53
1.24314e-53
7.94797e-54
5.05992e-54
3.20788e-54
2.02542e-54
1.2737e-54
7.97821e-55
4.97809e-55
3.09432e-55
1.91621e-55
1.18228e-55
7.26813e-56
4.4522e-56
2.71768e-56
1.65317e-56
1.0022e-56
6.05515e-57
3.6463e-57
2.18854e-57
1.30933e-57
7.80826e-58
4.64181e-58
2.75083e-58
1.62517e-58
9.57217e-59
5.62096e-59
3.2909e-59
1.92103e-59
1.11812e-59
6.48907e-60
3.75521e-60
2.16698e-60
1.24697e-60
7.15563e-61
4.0949e-61
2.33696e-61
1.3301e-61
7.55011e-62
4.27431e-62
2.41342e-62
1.35914e-62
7.63428e-63
4.27715e-63
2.39019e-63
1.33232e-63
7.40786e-64
4.1086e-64
2.2731e-64
1.25451e-64
6.90671e-65
3.79328e-65
2.07832e-65
1.13598e-65
6.1944e-66
3.36979e-66
1.82889e-66
9.90289e-67
5.34972e-67
2.88338e-67
1.55053e-67
8.319e-68
4.4533e-68
2.37859e-68
1.26761e-68
6.7405e-69
3.57635e-69
1.89337e-69
1.00019e-69
5.27217e-70
2.77306e-70
1.45545e-70
7.62273e-71
3.98384e-71
2.07766e-71
1.08128e-71
5.61555e-72
2.91034e-72
1.50521e-72
7.76885e-73
4.00154e-73
2.05689e-73
1.05515e-73
5.40186e-74
2.75993e-74
1.40729e-74
7.16152e-75
3.63719e-75
1.84361e-75
9.32653e-76
4.70892e-76
2.37289e-76
1.19341e-76
5.99055e-77
3.00129e-77
1.50078e-77
7.49031e-78
3.73128e-78
1.85522e-78
9.20691e-79
4.56057e-79
2.25483e-79
1.11275e-79
5.48127e-80
2.69501e-80
1.32264e-80
6.47931e-81
3.16827e-81
1.54642e-81
7.53434e-82
3.66421e-82
1.77883e-82
8.62006e-83
4.16977e-83
2.01345e-83
9.70511e-84
4.66975e-84
2.24297e-84
1.07545e-84
5.14754e-85
2.45953e-85
1.17315e-85
5.58599e-86
2.65522e-86
1.25995e-86
5.9685e-87
2.82251e-87
1.3325e-87
6.28002e-88
2.95476e-88
1.38788e-88
6.50806e-89
3.04667e-89
1.42388e-89
6.64356e-90
3.09462e-90
1.43912e-90
6.68143e-91
3.09692e-91
1.4331e-91
6.6209e-92
3.05386e-92
1.40629e-92
6.46548e-93
2.96773e-93
1.36003e-93
6.22266e-94
2.84256e-94
1.29643e-94
5.90336e-95
2.68386e-95
1.21824e-95
5.52105e-96
2.4982e-96
1.12863e-96
5.09093e-97
2.29279e-97
1.03099e-97
4.62886e-98
2.07501e-98
9.28744e-99
4.15053e-99
1.85201e-99
8.25124e-100
3.67056e-100
1.63036e-100
7.2306e-101
3.2019e-101
1.41574e-101
6.25038e-102
2.75534e-102
1.21281e-102
5.33042e-103
2.33927e-103
1.02507e-103
4.48521e-104
1.9596e-104
8.54891e-105
3.72404e-105
1.61986e-105
7.03567e-106
3.05139e-106
1.32146e-106
5.71452e-107
2.4676e-107
1.06399e-107
4.58115e-108
1.96963e-108
8.45607e-109
3.62518e-109
1.55192e-109
6.63416e-110
2.83194e-110
1.20716e-110
5.13839e-111
2.18411e-111
9.27064e-112
3.92945e-112
1.66319e-112
7.0298e-113
2.96712e-113
1.25061e-113
5.26381e-114
2.21246e-114
9.28639e-115
3.89239e-115
1.62924e-115
6.81014e-116
2.84268e-116
1.18496e-116
4.93269e-117
2.05054e-117
8.51259e-118
3.52909e-118
1.46108e-118
6.04079e-119
2.49417e-119
1.02843e-119
4.2348e-120
1.74144e-120
7.15158e-121
2.933e-121
1.20127e-121
4.91351e-122
2.00707e-122
8.1876e-123
3.3356e-123
1.35711e-123
5.51423e-124
2.23759e-124
9.06783e-125
3.66992e-125
1.48334e-125
5.98762e-126
2.4138e-126
9.71814e-127
3.9075e-127
1.5691e-127
6.29274e-128
2.52038e-128
1.00817e-128
4.02752e-129
1.60689e-129
6.40287e-130
2.54805e-130
1.01271e-130
4.01982e-131
1.59358e-131
6.30944e-132
2.49491e-132
9.85301e-133
3.88627e-133
1.53091e-133
6.02305e-134
2.36667e-134
9.2878e-135
3.64035e-135
1.42505e-135
5.57153e-136
2.17559e-136
8.48474e-137
3.30492e-137
1.28571e-137
4.9956e-138
1.93863e-138
7.51392e-139
2.90873e-139
1.12462e-139
4.34284e-140
1.67498e-140
6.45229e-141
2.48249e-141
9.53964e-142
3.6614e-142
1.40357e-142
5.37397e-143
2.05508e-143
7.84943e-144
2.99449e-144
1.14099e-144
4.34231e-145
1.65058e-145
6.26661e-146
2.37634e-146
9.00045e-147
3.40488e-147
1.28653e-147
4.8554e-148
1.83026e-148
6.89104e-149
2.59145e-149
9.73391e-150
3.6519e-150
1.36848e-150
5.12211e-151
1.91491e-151
7.15053e-152
2.66698e-152
9.93559e-153
3.69709e-153
1.37411e-153
5.10125e-154
1.89159e-154
7.00606e-155
2.5919e-155
9.57767e-156
3.53509e-156
1.30329e-156
4.79932e-157
1.76531e-157
6.48578e-158
2.38016e-158
8.72478e-159
3.19452e-159
1.16832e-159
4.268e-160
1.55737e-160
5.67631e-161
2.06656e-161
7.51517e-162
2.72985e-162
9.90484e-163
3.58978e-163
1.29957e-163
4.69939e-164
1.69745e-164
6.12443e-165
2.20724e-165
7.94597e-166
2.85733e-166
1.02634e-166
3.68244e-167
1.31977e-167
4.72479e-168
1.6896e-168
6.03537e-169
2.1535e-169
7.67551e-170
2.7327e-170
9.71846e-171
3.45245e-171
1.22512e-171
4.34267e-172
1.53766e-172
5.43861e-173
1.92151e-173
6.78147e-174
2.39074e-174
8.4192e-175
2.96167e-175
1.04072e-175
3.65309e-176
1.28091e-176
4.48649e-177
1.56974e-177
5.48633e-178
1.91544e-178
6.68023e-179
2.32728e-179
8.09915e-180
2.81558e-180
9.7776e-181
3.39183e-181
1.17537e-181
4.06866e-182
1.40692e-182
4.85988e-183
1.67696e-183
5.78044e-184
1.9904e-184
6.84641e-185
2.35249e-185
8.07487e-186
2.76877e-186
9.48383e-187
3.24508e-187
1.10921e-187
3.78744e-188
1.29189e-188
4.40204e-189
1.49841e-189
5.09513e-190
1.73073e-190
5.8729e-191
1.9908e-191
6.74142e-192
2.28049e-192
7.70649e-193
2.60158e-193
8.77349e-194
2.9557e-194
9.94725e-195
3.34426e-195
1.12319e-195
3.76845e-196
1.26307e-196
4.22913e-197
1.41459e-197
4.72683e-198
1.57785e-198
5.26167e-199
1.75283e-199
5.83334e-200
1.93934e-200
6.44101e-201
2.13705e-201
7.08336e-202
2.34545e-202
7.75848e-203
2.56384e-203
8.4639e-204
2.79136e-204
9.19656e-205
3.02693e-205
9.9528e-206
3.26931e-206
1.07284e-206
3.51707e-207
1.15185e-207
3.76861e-208
1.23179e-208
4.02217e-209
1.31207e-209
4.27586e-210
1.39208e-210
4.52767e-211
1.47116e-211
4.77547e-212
1.54863e-212
5.01712e-213
1.62381e-213
5.25039e-214
1.69599e-214
5.47308e-215
1.76448e-215
5.68303e-216
1.82861e-216
5.87813e-217
1.88772e-217
6.05639e-218
1.9412e-218
6.21594e-219
1.98849e-219
6.35511e-220
2.0291e-220
6.47241e-221
2.06258e-221
6.56658e-222
2.08858e-222
6.63661e-223
2.10682e-223
6.68177e-224
2.1171e-224
6.7016e-225
2.11934e-225
6.69593e-226
2.11353e-226
6.66487e-227
2.09974e-227
6.60885e-228
2.07815e-228
6.52854e-229
2.04902e-229
6.42489e-230
2.01269e-230
6.29911e-231
1.96958e-231
6.15261e-232
1.92016e-232
5.98702e-233
1.86499e-233
5.80411e-234
1.80464e-234
5.60581e-235
1.73973e-235
5.39414e-236
1.67093e-236
5.17119e-237
1.5989e-237
4.93909e-238
1.5243e-238
4.69997e-239
1.44783e-239
4.45592e-240
1.37012e-240
4.209e-241
1.29181e-241
3.96115e-242
1.21351e-242
3.71423e-243
1.13578e-243
3.46997e-244
1.05915e-244
3.22993e-245
9.84084e-246
2.99554e-246
9.11011e-247
2.76807e-247
8.40301e-248
2.54858e-248
7.7227e-249
2.33801e-249
7.0718e-250
2.13708e-250
6.45238e-251
1.94638e-251
5.86602e-252
1.76632e-252
5.31377e-253
1.59715e-253
4.79624e-254
1.43902e-254
4.31362e-255
1.2919e-255
3.8657e-256
1.15568e-256
3.45193e-257
1.03015e-257
3.07149e-258
9.14982e-259
2.72327e-259
8.09809e-260
2.40597e-260
7.14186e-261
2.11811e-261
6.27629e-262
1.85812e-262
5.49617e-263
1.62429e-263