# vtk DataFile Version 2.0
FlowField
ASCII
DATASET STRUCTURED_GRID
DIMENSIONS 1602 1 52
POINTS 83304 float
0 0 0
0.1 0 0
0.2 0 0
0.3 0 0
0.4 0 0
0.5 0 0
0.6 0 0
0.7 0 0
0.8 0 0
0.9 0 0
1 0 0
1.1 0 0
1.2 0 0
1.3 0 0
1.4 0 0
1.5 0 0
1.6 0 0
1.7 0 0
1.8 0 0
1.9 0 0
2 0 0
2.1 0 0
2.2 0 0
2.3 0 0
2.4 0 0
2.5 0 0
2.6 0 0
2.7 0 0
2.8 0 0
2.9 0 0
3 0 0
3.1 0 0
3.2 0 0
3.3 0 0
3.4 0 0
3.5 0 0
3.6 0 0
3.7 0 0
3.8 0 0
3.9 0 0
4 0 0
4.1 0 0
4.2 0 0
4.3 0 0
4.4 0 0
4.5 0 0
4.6 0 0
4.7 0 0
4.8 0 0
4.9 0 0
5 0 0
5.1 0 0
5.2 0 0
5.3 0 0
5.4 0 0
5.5 0 0
5.6 0 0
5.7 0 0
5.8 0 0
5.9 0 0
6 0 0
6.1 0 0
6.2 0 0
6.3 0 0
6.4 0 0
6.5 0 0
6.6 0 0
6.7 0 0
6.8 0 0
6.9 0 0
7 0 0
7.1 0 0
7.2 0 0
7.3 0 0
7.4 0 0
7.5 0 0
7.6 0 0
7.7 0 0
7.8 0 0
7.9 0 0
8 0 0
8.1 0 0
8.2 0 0
8.3 0 0
8.4 0 0
8.5 0 0
8.6 0 0
8.7 0 0
8.8 0 0
8.9 0 0
9 0 0
9.1 0 0
9.2 0 0
9.3 0 0
9.4 0 0
9.5 0 0
9.6 0 0
9.7 0 0
9.8 0 0
9.9 0 0
10 0 0
10.1 0 0
10.2 0 0
10.3 0 0
10.4 0 0
10.5 0 0
10.6 0 0
10.7 0 0
10.8 0 0
10.9 0 0
11 0 0
11.1 0 0
11.2 0 0
11.3 0 0
11.4 0 0
11.5 0 0
11.6 0 0
11.7 0 0
11.8 0 0
11.9 0 0
12 0 0
12.1 0 0
12.2 0 0
12.3 0 0
12.4 0 0
12.5 0 0
12.6 0 0
12.7 0 0
12.8 0 0
12.9 0 0
13 0 0
13.1 0 0
13.2 0 0
13.3 0 0
13.4 0 0
13.5 0 0
13.6 0 0
13.7 0 0
13.8 0 0
13.9 0 0
14 0 0
14.1 0 0
14.2 0 0
14.3 0 0
14.4 0 0
14.5 0 0
14.6 0 0
14.7 0 0
14.8 0 0
14.9 0 0
15 0 0
15.1 0 0
15.2 0 0
15.3 0 0
15.4 0 0
15.5 0 0
15.6 0 0
15.7 0 0
15.8 0 0
15.9 0 0
16 0 0
16.1 0 0
16.2 0 0
16.3 0 0
16.4 0 0
16.5 0 0
16.6 0 0
16.7 0 0
16.8 0 0
16.9 0 0
17 0 0
17.1 0 0
17.2 0 0
17.3 0 0
17.4 0 0
17.5 0 0
17.6 0 0
17.7 0 0
17.8 0 0
17.9 0 0
18 0 0
18.1 0 0
18.2 0 0
18.3 0 0
18.4 0 0
18.5 0 0
18.6 0 0
18.7 0 0
18.8 0 0
18.9 0 0
19 0 0
19.1 0 0
19.2 0 0
19.3 0 0
19.4 0 0
19.5 0 0
19.6 0 0
19.7 0 0
19.8 0 0
19.9 0 0
20 0 0
20.1 0 0
20.2 0 0
20.3 0 0
20.4 0 0
20.5 0 0
20.6 0 0
20.7 0 0
20.8 0 0
20.9 0 0
21 0 0
21.1 0 0
21.2 0 0
21.3 0 0
21.4 0 0
21.5 0 0
21.6 0 0
21.7 0 0
21.8 0 0
21.9 0 0
22 0 0
22.1 0 0
22.2 0 0
22.3 0 0
22.4 0 0
22.5 0 0
22.6 0 0
22.7 0 0
22.8 0 0
22.9 0 0
23 0 0
23.1 0 0
23.2 0 0
23.3 0 0
23.4 0 0
23.5 0 0
23.6 0 0
23.7 0 0
23.8 0 0
23.9 0 0
24 0 0
24.1 0 0
24.2 0 0
24.3 0 0
24.4 0 0
24.5 0 0
24.6 0 0
24.7 0 0
24.8 0 0
24.9 0 0
25 0 0
25.1 0 0
25.2 0 0
25.3 0 0
25.4 0 0
25.5 0 0
25.6 0 0
25.7 0 0
25.8 0 0
25.9 0 0
26 0 0
26.1 0 0
26.2 0 0
26.3 0 0
26.4 0 0
26.5 0 0
26.6 0 0
26.7 0 0
26.8 0 0
26.9 0 0
27 0 0
27.1 0 0
27.2 0 0
27.3 0 0
27.4 0 0
27.5 0 0
27.6 0 0
27.7 0 0
27.8 0 0
27.9 0 0
28 0 0
28.1 0 0
28.2 0 0
28.3 0 0
28.4 0 0
28.5 0 0
28.6 0 0
28.7 0 0
28.8 0 0
28.9 0 0
29 0 0
29.1 0 0
29.2 0 0
29.3 0 0
29.4 0 0
29.5 0 0
29.6 0 0
29.7 0 0
29.8 0 0
29.9 0 0
30 0 0
30.1 0 0
30.2 0 0
30.3 0 0
30.4 0 0
30.5 0 0
30.6 0 0
30.7 0 0
30.8 0 0
30.9 0 0
31 0 0
31.1 0 0
31.2 0 0
31.3 0 0
31.4 0 0
31.5 0 0
31.6 0 0
31.7 0 0
31.8 0 0
31.9 0 0
32 0 0
32.1 0 0
32.2 0 0
32.3 0 0
32.4 0 0
32.5 0 0
32.6 0 0
32.7 0 0
32.8 0 0
32.9 0 0
33 0 0
33.1 0 0
33.2 0 0
33.3 0 0
33.4 0 0
33.5 0 0
33.6 0 0
33.7 0 0
33.8 0 0
33.9 0 0
34 0 0
34.1 0 0
34.2 0 0
34.3 0 0
34.4 0 0
34.5 0 0
34.6 0 0
34.7 0 0
34.8 0 0
34.9 0 0
35 0 0
35.1 0 0
35.2 0 0
35.3 0 0
35.4 0 0
35.5 0 0
35.6 0 0
35.7 0 0
35.8 0 0
35.9 0 0
36 0 0
36.1 0 0
36.2 0 0
36.3 0 0
36.4 0 0
36.5 0 0
36.6 0 0
36.7 0 0
36.8 0 0
36.9 0 0
37 0 0
37.1 0 0
37.2 0 0
37.3 0 0
37.4 0 0
37.5 0 0
37.6 0 0
37.7 0 0
37.8 0 0
37.9 0 0
38 0 0
38.1 0 0
38.2 0 0
38.3 0 0
38.4 0 0
38.5 0 0
38.6 0 0
38.7 0 0
38.8 0 0
38.9 0 0
39 0 0
39.1 0 0
39.2 0 0
39.3 0 0
39.4 0 0
39.5 0 0
39.6 0 0
39.7 0 0
39.8 0 0
39.9 0 0
40 0 0
40.1 0 0
40.2 0 0
40.3 0 0
40.4 0 0
40.5 0 0
40.6 0 0
40.7 0 0
40.8 0 0
40.9 0 0
41 0 0
41.1 0 0
41.2 0 0
41.3 0 0
41.4 0 0
41.5 0 0
41.6 0 0
41.7 0 0
41.8 0 0
41.9 0 0
42 0 0
42.1 0 0
42.2 0 0
42.3 0 0
42.4 0 0
42.5 0 0
42.6 0 0
42.7 0 0
42.8 0 0
42.9 0 0
43 0 0
43.1 0 0
43.2 0 0
43.3 0 0
43.4 0 0
43.5 0 0
43.6 0 0
43.7 0 0
43.8 0 0
43.9 0 0
44 0 0
44.1 0 0
44.2 0 0
44.3 0 0
44.4 0 0
44.5 0 0
44.6 0 0
44.7 0 0
44.8 0 0
44.9 0 0
45 0 0
45.1 0 0
45.2 0 0
45.3 0 0
45.4 0 0
45.5 0 0
45.6 0 0
45.7 0 0
45.8 0 0
45.9 0 0
46 0 0
46.1 0 0
46.2 0 0
46.3 0 0
46.4 0 0
46.5 0 0
46.6 0 0
46.7 0 0
46.8 0 0
46.9 0 0
47 0 0
47.1 0 0
47.2 0 0
47.3 0 0
47.4 0 0
47.5 0 0
47.6 0 0
47.7 0 0
47.8 0 0
47.9 0 0
48 0 0
48.1 0 0
48.2 0 0
48.3 0 0
48.4 0 0
48.5 0 0
48.6 0 0
48.7 0 0
48.8 0 0
48.9 0 0
49 0 0
49.1 0 0
49.2 0 0
49.3 0 0
49.4 0 0
49.5 0 0
49.6 0 0
49.7 0 0
49.8 0 0
49.9 0 0
50 0 0
50.1 0 0
50.2 0 0
50.3 0 0
50.4 0 0
50.5 0 0
50.6 0 0
50.7 0 0
50.8 0 0
50.9 0 0
51 0 0
51.1 0 0
51.2 0 0
51.3 0 0
51.4 0 0
51.5 0 0
51.6 0 0
51.7 0 0
51.8 0 0
51.9 0 0
52 0 0
52.1 0 0
52.2 0 0
52.3 0 0
52.4 0 0
52.5 0 0
52.6 0 0
52.7 0 0
52.8 0 0
52.9 0 0
53 0 0
53.1 0 0
53.2 0 0
53.3 0 0
53.4 0 0
53.5 0 0
53.6 0 0
53.7 0 0
53.8 0 0
53.9 0 0
54 0 0
54.1 0 0
54.2 0 0
54.3 0 0
54.4 0 0
54.5 0 0
54.6 0 0
54.7 0 0
54.8 0 0
54.9 0 0
55 0 0
55.1 0 0
55.2 0 0
55.3 0 0
55.4 0 0
55.5 0 0
55.6 0 0
55.7 0 0
55.8 0 0
55.9 0 0
56 0 0
56.1 0 0
56.2 0 0
56.3 0 0
56.4 0 0
56.5 0 0
56.6 0 0
56.7 0 0
56.8 0 0
56.9 0 0
57 0 0
57.1 0 0
57.2 0 0
57.3 0 0
57.4 0 0
57.5 0 0
57.6 0 0
57.7 0 0
57.8 0 0
57.9 0 0
58 0 0
58.1 0 0
58.2 0 0
58.3 0 0
58.4 0 0
58.5 0 0
58.6 0 0
58.7 0 0
58.8 0 0
58.9 0 0
59 0 0
59.1 0 0
59.2 0 0
59.3 0 0
59.4 0 0
59.5 0 0
59.6 0 0
59.7 0 0
59.8 0 0
59.9 0 0
60 0 0
60.1 0 0
60.2 0 0
60.3 0 0
60.4 0 0
60.5 0 0
60.6 0 0
60.7 0 0
60.8 0 0
60.9 0 0
61 0 0
61.1 0 0
61.2 0 0
61.3 0 0
61.4 0 0
61.5 0 0
61.6 0 0
61.7 0 0
61.8 0 0
61.9 0 0
62 0 0
62.1 0 0
62.2 0 0
62.3 0 0
62.4 0 0
62.5 0 0
62.6 0 0
62.7 0 0
62.8 0 0
62.9 0 0
63 0 0
63.1 0 0
63.2 0 0
63.3 0 0
63.4 0 0
63.5 0 0
63.6 0 0
63.7 0 0
63.8 0 0
63.9 0 0
64 0 0
64.1 0 0
64.2 0 0
64.3 0 0
64.4 0 0
64.5 0 0
64.6 0 0
64.7 0 0
64.8 0 0
64.9 0 0
65 0 0
65.1 0 0
65.2 0 0
65.3 0 0
65.4 0 0
65.5 0 0
65.6 0 0
65.7 0 0
65.8 0 0
65.9 0 0
66 0 0
66.1 0 0
66.2 0 0
66.3 0 0
66.4 0 0
66.5 0 0
66.6 0 0
66.7 0 0
66.8 0 0
66.9 0 0
67 0 0
67.1 0 0
67.2 0 0
67.3 0 0
67.4 0 0
67.5 0 0
67.6 0 0
67.7 0 0
67.8 0 0
67.9 0 0
68 0 0
68.1 0 0
68.2 0 0
68.3 0 0
68.4 0 0
68.5 0 0
68.6 0 0
68.7 0 0
68.8 0 0
68.9 0 0
69 0 0
69.1 0 0
69.2 0 0
69.3 0 0
69.4 0 0
69.5 0 0
69.6 0 0
69.7 0 0
69.8 0 0
69.9 0 0
70 0 0
70.1 0 0
70.2 0 0
70.3 0 0
70.4 0 0
70.5 0 0
70.6 0 0
70.7 0 0
70.8 0 0
70.9 0 0
71 0 0
71.1 0 0
71.2 0 0
71.3 0 0
71.4 0 0
71.5 0 0
71.6 0 0
71.7 0 0
71.8 0 0
71.9 0 0
72 0 0
72.1 0 0
72.2 0 0
72.3 0 0
72.4 0 0
72.5 0 0
72.6 0 0
72.7 0 0
72.8 0 0
72.9 0 0
73 0 0
73.1 0 0
73.2 0 0
73.3 0 0
73.4 0 0
73.5 0 0
73.6 0 0
73.7 0 0
73.8 0 0
73.9 0 0
74 0 0
74.1 0 0
74.2 0 0
74.3 0 0
74.4 0 0
74.5 0 0
74.6 0 0
74.7 0 0
74.8 0 0
74.9 0 0
75 0 0
75.1 0 0
75.2 0 0
75.3 0 0
75.4 0 0
75.5 0 0
75.6 0 0
75.7 0 0
75.8 0 0
75.9 0 0
76 0 0
76.1 0 0
76.2 0 0
76.3 0 0
76.4 0 0
76.5 0 0
76.6 0 0
76.7 0 0
76.8 0 0
76.9 0 0
77 0 0
77.1 0 0
77.2 0 0
77.3 0 0
77.4 0 0
77.5 0 0
77.6 0 0
77.7 0 0
77.8 0 0
77.9 0 0
78 0 0
78.1 0 0
78.2 0 0
78.3 0 0
78.4 0 0
78.5 0 0
78.6 0 0
78.7 0 0
78.8 0 0
78.9 0 0
79 0 0
79.1 0 0
79.2 0 0
79.3 0 0
79.4 0 0
79.5 0 0
79.6 0 0
79.7 0 0
79.8 0 0
79.9 0 0
80 0 0
80.1 0 0
80.2 0 0
80.3 0 0
80.4 0 0
80.5 0 0
80.6 0 0
80.7 0 0
80.8 0 0
80.9 0 0
81 0 0
81.1 0 0
81.2 0 0
81.3 0 0
81.4 0 0
81.5 0 0
81.6 0 0
81.7 0 0
81.8 0 0
81.9 0 0
82 0 0
82.1 0 0
82.2 0 0
82.3 0 0
82.4 0 0
82.5 0 0
82.6 0 0
82.7 0 0
82.8 0 0
82.9 0 0
83 0 0
83.1 0 0
83.2 0 0
83.3 0 0
83.4 0 0
83.5 0 0
83.6 0 0
83.7 0 0
83.8 0 0
83.9 0 0
84 0 0
84.1 0 0
84.2 0 0
84.3 0 0
84.4 0 0
84.5 0 0
84.6 0 0
84.7 0 0
84.8 0 0
84.9 0 0
85 0 0
85.1 0 0
85.2 0 0
85.3 0 0
85.4 0 0
85.5 0 0
85.6 0 0
85.7 0 0
85.8 0 0
85.9 0 0
86 0 0
86.1 0 0
86.2 0 0
86.3 0 0
86.4 0 0
86.5 0 0
86.6 0 0
86.7 0 0
86.8 0 0
86.9 0 0
87 0 0
87.1 0 0
87.2 0 0
87.3 0 0
87.4 0 0
87.5 0 0
87.6 0 0
87.7 0 0
87.8 0 0
87.9 0 0
88 0 0
88.1 0 0
88.2 0 0
88.3 0 0
88.4 0 0
88.5 0 0
88.6 0 0
88.7 0 0
88.8 0 0
88.9 0 0
89 0 0
89.1 0 0
89.2 0 0
89.3 0 0
89.4 0 0
89.5 0 0
89.6 0 0
89.7 0 0
89.8 0 0
89.9 0 0
90 0 0
90.1 0 0
90.2 0 0
90.3 0 0
90.4 0 0
90.5 0 0
90.6 0 0
90.7 0 0
90.8 0 0
90.9 0 0
91 0 0
91.1 0 0
91.2 0 0
91.3 0 0
91.4 0 0
91.5 0 0
91.6 0 0
91.7 0 0
91.8 0 0
91.9 0 0
92 0 0
92.1 0 0
92.2 0 0
92.3 0 0
92.4 0 0
92.5 0 0
92.6 0 0
92.7 0 0
92.8 0 0
92.9 0 0
93 0 0
93.1 0 0
93.2 0 0
93.3 0 0
93.4 0 0
93.5 0 0
93.6 0 0
93.7 0 0
93.8 0 0
93.9 0 0
94 0 0
94.1 0 0
94.2 0 0
94.3 0 0
94.4 0 0
94.5 0 0
94.6 0 0
94.7 0 0
94.8 0 0
94.9 0 0
95 0 0
95.1 0 0
95.2 0 0
95.3 0 0
95.4 0 0
95.5 0 0
95.6 0 0
95.7 0 0
95.8 0 0
95.9 0 0
96 0 0
96.1 0 0
96.2 0 0
96.3 0 0
96.4 0 0
96.5 0 0
96.6 0 0
96.7 0 0
96.8 0 0
96.9 0 0
97 0 0
97.1 0 0
97.2 0 0
97.3 0 0
97.4 0 0
97.5 0 0
97.6 0 0
97.7 0 0
97.8 0 0
97.9 0 0
98 0 0
98.1 0 0
98.2 0 0
98.3 0 0
98.4 0 0
98.5 0 0
98.6 0 0
98.7 0 0
98.8 0 0
98.9 0 0
99 0 0
99.1 0 0
99.2 0 0
99.3 0 0
99.4 0 0
99.5 0 0
99.6 0 0
99.7 0 0
99.8 0 0
99.9 0 0
100 0 0
100.1 0 0
100.2 0 0
100.3 0 0
100.4 0 0
100.5 0 0
100.6 0 0
100.7 0 0
100.8 0 0
100.9 0 0
101 0 0
101.1 0 0
101.2 0 0
101.3 0 0
101.4 0 0
101.5 0 0
101.6 0 0
101.7 0 0
101.8 0 0
101.9 0 0
102 0 0
102.1 0 0
102.2 0 0
102.3 0 0
102.4 0 0
102.5 0 0
102.6 0 0
102.7 0 0
102.8 0 0
102.9 0 0
103 0 0
103.1 0 0
103.2 0 0
103.3 0 0
103.4 0 0
103.5 0 0
103.6 0 0
103.7 0 0
103.8 0 0
103.9 0 0
104 0 0
104.1 0 0
104.2 0 0
104.3 0 0
104.4 0 0
104.5 0 0
104.6 0 0
104.7 0 0
104.8 0 0
104.9 0 0
105 0 0
105.1 0 0
105.2 0 0
105.3 0 0
105.4 0 0
105.5 0 0
105.6 0 0
105.7 0 0
105.8 0 0
105.9 0 0
106 0 0
106.1 0 0
106.2 0 0
106.3 0 0
106.4 0 0
106.5 0 0
106.6 0 0
106.7 0 0
106.8 0 0
106.9 0 0
107 0 0
107.1 0 0
107.2 0 0
107.3 0 0
107.4 0 0
107.5 0 0
107.6 0 0
107.7 0 0
107.8 0 0
107.9 0 0
108 0 0
108.1 0 0
108.2 0 0
108.3 0 0
108.4 0 0
108.5 0 0
108.6 0 0
108.7 0 0
108.8 0 0
108.9 0 0
109 0 0
109.1 0 0
109.2 0 0
109.3 0 0
109.4 0 0
109.5 0 0
109.6 0 0
109.7 0 0
109.8 0 0
109.9 0 0
110 0 0
110.1 0 0
110.2 0 0
110.3 0 0
110.4 0 0
110.5 0 0
110.6 0 0
110.7 0 0
110.8 0 0
110.9 0 0
111 0 0
111.1 0 0
111.2 0 0
111.3 0 0
111.4 0 0
111.5 0 0
111.6 0 0
111.7 0 0
111.8 0 0
111.9 0 0
112 0 0
[...]
POINT_DATA 83304

SCALARS pressure float 1
LOOKUP_TABLE default
0
0
0
0
0
0
0
0
0
0
0
0
0
0
0
0
0
0
0
0
0
0
0
0
0
0
0
0
0
0
0
0
0
0
0
0
0
0
0
0
0
0
0
0
0
0
0
0
0
0
0
0
0
0
0
0
0
0
0
0
0
0
0
0
0
0
0
0
0
0
0
0
0
0
0
0
0
0
0
0
0
0
0
0
0
0
0
0
0
0
0
0
0
0
0
0
0
0
0
0
0
0
0
0
0
0
0
0
0
0
0
0
0
0
0
0
0
0
0
0
0
0
0
0
0
0
0
0
0
0
0
0
0
0
0
0
0
0
0
0
0
0
0
0
0
0
0
0
0
0
0
0
0
0
0
0
0
0
0
0
0
0
0
0
0
0
0
0
0
0
0
0
0
0
0
0
0
0
0
0
0
0
0
0
0
0
0
0
0
0
0
0
0
0
0
0
0
0
0
0
0
0
0
0
0
0
0
0
0
0
0
0
0
0
0
0
0
0
0
0
0
0
0
0
0
0
0
0
0
0
0
0
0
0
0
0
0
0
0
0
0
0
0
0
0
0
0
0
0
0
0
0
0
0
0
0
0
0
0
0
0
0
0
0
0
0
0
0
0
0
0
0
0
0
0
0
0
0
0
0
0
0
0
0
0
0
0
0
0
0
0
0
0
0
0
0
0
0
0
0
0
0
0
0
0
0
0
0
0
0
0
0
0
0
0
0
0
0
0
0
0
0
0
0
0
0
0
0
0
0
0
0
0
0
0
0
0
0
0
0
0
0
0
0
0
0
0
0
0
0
0
0
0
0
0
0
0
0
0
0
0
0
0
0
0
0
0
0
0
0
0
0
0
0
0
0
0
0
0
0
0
0
0
0
0
0
0
0
0
0
0
0
0
0
0
0
0
0
0
0
0
0
0
0
0
0
0
0
0
0
0
0
0
0
0
0
0
0
0
0
0
0
0
0
0
0
0
0
0
0
0
0
0
0
0
0
0
0
0
0
0
0
0
0
0
0
0
0
0
0
0
0
0
0
0
0
0
0
0
0
0
0
0
0
0
0
0
0
0
0
0
0
0
0
0
0
0
0
0
0
0
0
0
0
0
0
0
0
0
0
0
0
0
0
0
0
0
0
0
0
0
0
0
0
0
0
0
0
0
0
0
0
0
0
0
0
0
0
0
0
0
0
0
0
0
0
0
0
0
0
0
0
0
0
0
0
0
0
0
0
0
0
0
0
0
0
0
0
0
0
0
0
0
0
0
0
0
0
0
0
0
0
0
0
0
0
0
0
0
0
0
0
0
0
0
0
0
0
0
0
0
0
0
0
0
0
0
0
0
0
0
0
0
0
0
0
0
0
0
0
0
0
0
0
0
0
0
0
0
0
0
0
0
0
0
0
0
0
0
0
0
0
0
0
0
0
0
0
0
0
0
0
0
0
0
0
0
0
0
0
0
0
0
0
0
0
0
0
0
0
0
0
0
0
0
0
0
0
0
0
0
0
0
0
0
0
0
0
0
0
0
0
0
0
0
0
0
0
0
0
0
0
0
0
0
0
0
0
0
0
0
0
0
0
0
0
0
0
0
0
0
0
0
0
0
0
0
0
0
0
0
0
0
0
0
0
0
0
0
0
0
0
0
0
0
0
0
0
0
0
0
0
0
0
0
0
0
0
0
0
0
0
0
0
0
0
0
0
0
0
0
0
0
0
0
0
0
0
0
0
0
0
0
0
0
0
0
0
0
0
0
0
0
0
0
0
0
0
0
0
0
0
0
0
0
0
0
0
0
0
0
0
0
0
0
0
0
0
0
0
0
0
0
0
0
0
0
0
0
0
0
0
0
0
0
0
0
0
0
0
0
0
0
0
0
0
0
0
0
0
0
0
0
0
0
0
0
0
0
0
0
0
0
0
0
0
0
0
0
0
0
0
0
0
0
0
0
0
0
0
0
0
0
0
0
0
0
0
0
0
0
0
0
0
0
0
0
0
0
0
0
0
0
0
0
0
0
0
0
0
0
0
0
0
0
0
0
0
0
0
0
0
0
0
0
0
0
0
0
0
0
0
0
0
0
0
0
0
0
0
0
0
0
0
0
0
0
0
0
0
0
0
0
0
0
0
0
0
0
0
0
0
0
0
0
0
0
0
0
0
0
0
0
0
0
0
0
0
0
0
0
0
0
0
0
0
0
0
0
0
0
0
0
0
0
0
0
0
0
0
0
0
0
0
0
0
0
0
0
0
0
0
0
0
0
0
0
0
0
0
0
0
0
0
0
0
0
0
0
0
0
0
0
0
0
0
0
0
0
0
0
0
0
0
0
0
0
0
0
0
0
0
0
0
0
0
0
0
0
0
0
0
0
0
0
0
0
0
0
0
0
0
0
0
0
0
0
0
0
0
0
0
0
0
0
0
0
0
0
0
0
0
0
0
0
0
0
0
0
0
0
0
0
0
0
0
0
0
0
0
0
0
0
0
0
0
0
0
0
0
0
0
0
0
0
0
0
0
0
0
0
0
0
0
0
0
0
0
0
0
0
0
0
0
0
0
0
0
0
0
0
0
0
0
0
0
0
0
0
0
0
0
0
0
0
0
0
0
0
0
0
0
0
0
0
0
0
0
0
0
0
0
0
0
0
0
0
0
0
0
0
0
0
0
0
0
0
0
0
0
0
0
0
0
0
0
0
0
0
0
0
0
0
0
0
0
0
0
0
0
0
0
0
0
0
0
0
0
0
0
0
0
0
0
0
0
0
0
0
0
0
0
0
0
0
0
0
0
0
0
0
0
0
0
0
0
0
0
0
0
0
0
0
0
0
0
0
0
0
0
0
0
0
0
0
0
0
0
0
0
0
0
0
0
0
0
0
0
0
0
0
0
0
0
0
0
0
0
0
0
0
0
0
0
0
0
0
0
0
0
0
0
0
0
0
0
0
0
0
0
0
0
0
0
0
0
0
0
0
0
0
0
0
0
0
0
0
0
0
0
0
0
0
0
0
0
0
0
0
0
0
0
0
0
0
0
0
0
0
0
0
0
0
0
0
0
0
0
0
0
0
0
0
0
0
0
0
0
0
0
0
0
0
0
0
0
0
0
0
0
0
0
0
0
0
0
0
0
0
0
0
0
0
0
0
0
0
0
0
0
0
0
0
0
0
0
0
0
0
0
0
0
0
0
0
0
0
0
0
0
0
0
0
0
0
0
0
0
0
0
0
0
0
0
0
0
0
0
0
0
0
0
0
0
0
0
0
0
0
0
0
0
0
0
0
0
0
0
0
0
0
0
0
0
0
0
0
0
0
0
0
0
0
0
0
0
0
0
0
0
0
0
0
0
0
0
0
0
0
0
0
0
0
0
0
0
0
0
0
0
0
0
0
0
0
0
0
0
0
0
0
0
0
0
0
0
0
0
0
0
0
0
0
0
0
0
0
0
0
0
0
0
0
0
0
0
0
0
0
0
0
0
0
0
0
0
0
0
0
0
0
0
0
0
0
0
0
0
0
0
0
0
0
0
0
0
0
0
0
0
0
0
0
0
0
0
0
0
0
0
0
0
0
0
0
0
0
0
0
0
0
0
0
0
0
0
0
0
0
0
0
0
0
0
0
0
0
0
0
0
0
0
0
0.0777428
0.0530018
0.0438246
0.035961
0.0307193
0.0273505
0.0250421
0.0233226
0.0219202
0.0207344
0.0197397
0.0189529
0.0184727
0.0184896
0.019236
0.0209447
0.0238192
0.0279692
0.0333932
0.0399994
0.0476014
0.0559449
0.0647723
0.0738265
0.0829298
0.0919099
0.100547
0.108666
0.116138
0.122813
0.128454
0.132763
0.135442
0.136277
0.135164
0.132107
0.127209
0.120684
0.112834
0.104026
0.0946802
0.0852013
0.0759175
0.0670655
0.0588161
0.0512759
0.0444762
0.0383949
0.0330041
0.0282855
0.0241991
0.0206606
0.01757
0.0148656
0.0125387
0.0105853
0.00894447
0.00749178
0.00610622
0.00475778
0.00354129
0.00262358
0.00213743
0.00209076
0.00234284
0.00265561
0.00279025
0.00260097
0.00208339
0.0013593
0.000612368
1.11827e-05
-0.000345472
-0.000444969
-0.000343771
-0.000133124
9.57584e-05
0.000275992
0.000374872
0.000391073
0.000344232
0.00026252
0.000172479
9.31144e-05
3.42352e-05
-2.2288e-06
-1.95101e-05
-2.31851e-05
-1.9008e-05
-1.16448e-05
-4.20896e-06
1.65503e-06
5.41271e-06
7.21522e-06
7.53534e-06
6.9145e-06
5.821e-06
4.59408e-06
3.44239e-06
2.46912e-06
1.70502e-06
1.13827e-06
7.37027e-07
4.64031e-07
2.84663e-07
1.70442e-07
9.97492e-08
5.71303e-08
3.20563e-08
1.76383e-08
9.5249e-09
5.0518e-09
2.63333e-09
1.3499e-09
6.80887e-10
3.381e-10
1.65354e-10
7.96842e-11
3.78521e-11
1.77308e-11
8.19296e-12
3.73566e-12
1.68128e-12
7.47112e-13
3.27885e-13
1.42154e-13
6.08978e-14
2.57841e-14
1.07921e-14
4.46635e-15
1.82801e-15
7.40061e-16
2.96413e-16
1.17475e-16
4.60765e-17
1.78885e-17
6.87532e-18
2.61638e-18
9.85964e-19
3.67986e-19
1.36041e-19
4.98229e-20
1.80786e-20
6.50023e-21
2.31616e-21
8.17965e-22
2.86333e-22
9.93633e-23
3.41853e-23
1.16616e-23
3.94472e-24
1.3233e-24
4.40276e-25
1.45294e-25
4.7563e-26
1.54462e-26
4.97665e-27
1.59094e-27
5.04663e-28
1.58859e-28
4.96271e-29
1.53869e-29
4.73516e-30
1.44645e-30
4.38612e-31
1.32037e-31
3.94619e-32
1.17098e-32
3.45015e-33
1.00941e-33
2.93266e-34
8.46146e-35
2.42461e-35
6.90037e-36
1.95057e-36
5.47682e-37
1.52756e-37
4.2324e-38
1.16498e-38
3.18576e-39
8.65542e-40
2.3365e-40
6.26703e-41
1.67031e-41
4.42375e-42
1.16428e-42
3.04522e-43
7.91569e-44
2.04497e-44
5.25082e-45
1.34007e-45
3.39942e-46
8.57185e-47
2.14858e-47
5.35367e-48
1.32614e-48
3.26574e-49
7.99543e-50
1.94619e-50
4.71002e-51
1.13337e-51
2.71173e-52
6.45146e-53
1.52623e-53
3.59046e-54
8.39954e-55
1.95412e-55
4.52118e-56
1.04032e-56
2.38074e-57
5.41871e-58
1.22669e-58
2.76207e-59
6.18603e-60
1.37809e-60
3.0538e-61
6.73156e-62
1.47609e-62
3.21988e-63
6.98734e-64
1.50848e-64
3.23988e-65
6.92302e-66
1.4718e-66
3.11312e-67
6.55164e-68
1.37189e-68
2.85836e-69
5.92584e-70
1.22244e-70
2.50935e-71
5.12577e-72
1.04191e-72
2.10759e-73
4.24262e-74
8.49932e-75
1.69451e-75
3.36221e-76
6.63946e-77
1.3049e-77
2.55252e-78
4.96952e-79
9.62993e-80
1.85739e-80
3.56584e-81
6.81409e-82
1.29614e-82
2.45412e-83
4.62546e-84
8.67826e-85
1.62083e-85
3.01355e-86
5.57779e-87
1.02777e-87
1.88534e-88
3.44308e-89
6.26006e-90
1.13316e-90
2.04216e-91
3.66423e-92
6.54604e-93
1.16435e-93
2.06207e-94
3.6362e-95
6.38441e-96
1.11617e-96
1.94305e-97
3.36812e-98
5.81364e-99
9.99244e-100
1.71027e-100
2.91497e-101
4.94751e-102
8.36234e-103
1.40755e-103
2.35941e-104
3.93866e-105
6.548e-106
1.08415e-106
1.7877e-107
2.93584e-108
4.80185e-109
7.8222e-110
1.26911e-110
2.0508e-111
3.30073e-112
5.29132e-113
8.4487e-114
1.34368e-114
2.12854e-115
3.35861e-116
5.27876e-117
8.26427e-118
1.28879e-118
2.00204e-119
3.09797e-120
4.77534e-121
7.3326e-122
1.12161e-122
1.70909e-123
2.59436e-124
3.92322e-125
5.91026e-126
8.87009e-127
1.32621e-127
1.97543e-128
2.93147e-129
4.33395e-130
6.38359e-131
9.36769e-132
1.36959e-132
1.99501e-133
2.89534e-134
4.18657e-135
6.03153e-136
8.65786e-137
1.23826e-137
1.76456e-138
2.50547e-139
3.54465e-140
4.99683e-141
7.01869e-142
9.82342e-143
1.36999e-143
1.90383e-144
2.6363e-145
3.63768e-146
5.00172e-147
6.85307e-148
9.35675e-149
1.27304e-149
1.72602e-150
2.33202e-151
3.13986e-152
4.21292e-153
5.63319e-154
7.50633e-155
9.96798e-156
1.31916e-156
1.7398e-157
2.28677e-158
2.99547e-159
3.9105e-160
5.08779e-161
6.59718e-162
8.52559e-163
1.09807e-163
1.40955e-164
1.80333e-165
2.29944e-166
2.92229e-167
3.70154e-168
4.67308e-169
5.88015e-170
7.37465e-171
9.21863e-172
1.14859e-172
1.42641e-173
1.76565e-174
2.17846e-175
2.67907e-176
3.28404e-177
4.01263e-178
4.88705e-179
5.9329e-180
7.17945e-181
8.66012e-182
1.04128e-182
1.24803e-183
1.49107e-184
1.7758e-185
2.1082e-186
2.49492e-187
2.94328e-188
3.46129e-189
4.05771e-190
4.742e-191
5.52439e-192
6.4158e-193
7.42789e-194
8.57294e-195
9.86387e-196
1.13141e-196
1.29376e-197
1.47485e-198
1.67612e-199
1.89903e-200
2.14501e-201
2.41545e-202
2.7117e-203
3.03504e-204
3.38663e-205
3.76752e-206
4.17859e-207
4.62053e-208
5.09385e-209
5.5988e-210
6.13537e-211
6.70326e-212
7.30186e-213
7.93022e-214
8.58705e-215
9.2707e-216
9.97915e-217
1.071e-217
1.14604e-218
1.22274e-219
1.30073e-220
1.37964e-221
1.45906e-222
1.53854e-223
1.61761e-224
1.6958e-225
1.77261e-226
1.84752e-227
1.92002e-228
1.98961e-229
2.05577e-230
2.11801e-231
2.17587e-232
2.2289e-233
2.27669e-234
2.31885e-235
2.35505e-236
2.38501e-237
2.40849e-238
2.42529e-239
2.4353e-240
2.43842e-241
2.43467e-242
2.42406e-243
2.40671e-244
2.38278e-245
2.35247e-246
2.31605e-247
2.27382e-248
2.22613e-249
2.17337e-250
2.11597e-251
2.05436e-252
1.98902e-253
1.92043e-254
1.84909e-255
1.77548e-256
1.70012e-257
1.62348e-258
1.54604e-259
1.46826e-260
1.39058e-261
1.31341e-262
1.23715e-263
1.16214e-264
1.08871e-265
1.01715e-266
9.47724e-268
8.80646e-269
8.16105e-270
7.54255e-271
6.95215e-272
6.39074e-273
5.8589e-274
5.35691e-275
4.88483e-276
4.44245e-277
4.02934e-278
3.64492e-279
3.2884e-280
2.95887e-281
2.6553e-282
2.37656e-283
2.12146e-284
1.88873e-285
1.67711e-286
1.48527e-287
1.31192e-288
1.15575e-289
1.01551e-290
8.89943e-292
7.77865e-293
6.78127e-294
5.89635e-295
5.11356e-296
4.42315e-297
3.81602e-298
3.28369e-299
2.8183e-300
2.41261e-301
2.05999e-302
1.75436e-303
1.49023e-304
1.26261e-305
1.06701e-306
8.99395e-308
7.56168e-309
6.34122e-310
5.30415e-311
4.42536e-312
3.68276e-313
3.05696e-314
2.53105e-315
2.09029e-316
1.72191e-317
1.41485e-318
1.15962e-319
9.48112e-321
7.70742e-322
6.42285e-323
4.94066e-324
0
0
0
0
0
0
0
0
0
0
0
0
0
0
0
0
0
0
0
0
0
0
0
0
0
0
0
0
0
0
0
0
0
0
0
0
0
0
0
0
0
0
0
0
0
0
0
0
0
0
0
0
0
0
0
0
0
0
0
0
0
0
0
0
0
0
0
0
0
0
0
0
0
0
0
0
0
0
0
0
0
0
0
0
0
0
0
0
0
0
0
0
0
0
0
0
0
0
0
0
0
0
0
0
0
0
0
0
0
0
0
0
0
0
0
0
0
0
0
0
0
0
0
0
0
0
0
0
0
0
0
0
0
0
0
0
0
0
0
0
0
0
0
0
0
0
0
0
0
0
0
0
0
0
0
0
0
0
0
0
0
0
0
0
0
0
0
0
0
0
0
0
0
0
0
0
0
0
0
0
0
0
0
0
0
0
0
0
0
0
0
0
0
0
0
0
0
0
0
0
0
0
0
0
0
0
0
0
0
0
0
0
0
0
0
0
0
0
0
0
0
0
0
0
0
0
0
0
0
0
0
0
0
0
0
0
0
0
0
0
0
0
0
0
0
0
0
0
0
0
0
0
0
0
0
0
0
0
0
0
0
0
0
0
0
0
0
0
0
0
0
0
0
0
0
0
0
0
0
0
0
0
0
0
0
0
0
0
0
0
0
0
0
0
0
0
0
0
0
0
0
0
0
0
0
0
0
0
0
0
0
0
0
0
0
0
0
0
0
0
0
0
0
0
0
0
0
0
0
0
0
0
0
0
0
0
0
0
0
0
0
0
0
0
0
0
0
0
0
0
0
0
0
0
0
0
0
0
0
0
0
0
0
0
0
0
0
0
0
0
0
0
0
0
0
0
0
0
0
0
0
0
0
0
0
0
0
0
0
0
0
0
0
0
0
0
0
0
0
0
0
0
0
0
0
0
0
0
0
0
0
0
0
0
0
0
0
0
0
0
0
0
0
0
0
0
0
0
0
0
0
0
0
0
0
0
0
0
0
0
0
0
0
0
0
0
0
0
0
0
0
0
0
0
0
0
0
0
0
0
0
0
0
0
0
0
0
0
0
0
0
0
0
0
0
0
0
0
0
0
0
0
0
0
0
0
0
0
0
0
0
0
0
0
0
0
0
0
0
0
0
0
0
0
0
0
0
0
0
0
0
0
0
0
0
0
0
0
0
0
0
0
0
0
0
0
0
0
0
0
0
0
0
0
0
0
0
0
0
0
0
0
0
0
0
0
0
0
0
0
0
0
0
0
0
0
0
0
0
0
0
0
0
0
0
0
0
0
0
0
0
0
0
0
0
0
0
0
0
0
0
0
0
0
0
0
0
0
0
0
0
0
0
0
0
0
0
0
0
0
0
0
0
0
0
0
0
0
0
0
0
0
0
0
0
0
0
0
0
0
0
0
0
0
0
0
0
0
0
0
0
0
0
0
0
0
0
0
0
0
0
0
0
0
0
0
0
0
0
0
0
0
0
0
0
0
0
0
0
0
0
0
0
0
0
0
0
0
0
0
0
0
0
0
0
0
0
0
0
0
0
0
0
0
0
0
0
0
0
0
0
0
0
0
0
0
0
0
0
0
0
0
0
0
0
0
0
0
0
0
0
0
0
0
0
0
0
0
0
0
0
0
0
0
0
0
0
0
0
0
0
0
0
0
0
0
0
0
0
0
0
0
0
0
0
0
0
0
0
0
0
0
0
0
0
0
0
0
0
0
0
0
0
0
0
0
0
0
0
0
0
0
0
0
0
0
0
0
0
0
0
0
0
0
0
0
0
0
0
0
0
0
0
0
0
0
0
0
0
0
0
0
0
0
0
0
0
0
0
0
0
0
0
0
0
0
0
0
0
0
0
0
0
0
0
0
0
0
0
0
0
0
0
0
0
0
0
0
0
0
0
0
0
0
0
0
0
0
0
0
0
0
0
0
0
0
0
0
0
0
0
0
0
0
0
0
0
0
0
0
0
0
0
0
0
0
0
0
0
0
0
0
0
0
0
0
0
0
0
0
0
0
0
0
0
0
0
0
0
0
0
0
0
0
0
0
0
0
0
0
0
0
0
0
0
0
0
0
0
0
0
0
0
0
0
0
0
0
0
0
0
0
0
0
0
0
0
0
0
0
0
0
0
0
0
0
0
0
0
0
0
0
0
0
0
0
0
0
0
0
0
0
0
0
0
0
0
0
0
0
0
0
0
0
0
0
0
0
0
0
0
0
0
0
0
0
0
0
0
0
0
0
0
0
0
0
0
0
0
0
0
0
0
0
0
0
0
0
0
0
0
0
0
0
0
0
0
0
0
0
0
0
0
0
0
0
0
0
0
0
0
0
0
0
0
0
0
0
0
0
0
0
0
0
0
0
0
0
0
0
0
0
0
0
0
0
0
0
0
0
0
0
0
0
0
0
0
0
0
0
0
0
0
0
0
0
0
0
0
0
0
0
0
0
0
0
0
0
0
0
0
0
0
0
0.0629068
0.0346251
0.0300724
0.0254102
0.0222785
0.0201292
0.0185538
0.0173323
0.0162977
0.0153934
0.0146225
0.0140019
0.0135955
0.0135476
0.0140421
0.0152587
0.0173546
0.0204155
0.0244299
0.0293027
0.0348688
0.0409031
0.0471731
0.0534572
0.0595988
0.0654715
0.0709342
0.075892
0.0802897
0.0840664
0.0871222
0.0893353
0.0905895
0.0908057
0.0899594
0.0880689
0.085192
0.0814323
0.0769215
0.0718034
0.0662481
0.0604527
0.0546025
0.0488501
0.0433303
0.0381588
0.033401
0.0290677
0.0251554
0.0216766
0.0186377
0.0159998
0.0136854
0.0116327
0.00983632
0.00832211
0.00707894
0.00601859
0.00501168
0.00397621
0.00294568
0.00205961
0.00148093
0.00129612
0.00145772
0.00179597
0.00208827
0.00215061
0.00190726
0.00140832
0.0007923
0.000219489
-0.000188865
-0.000382048
-0.000378415
-0.000241794
-5.08364e-05
0.000126692
0.000248482
0.000300441
0.00029074
0.000239861
0.000170917
0.000102916
4.771e-05
9.99493e-06
-1.09029e-05
-1.86771e-05
-1.79761e-05
-1.3014e-05
-6.89272e-06
-1.47613e-06
2.40992e-06
4.64948e-06
5.51551e-06
5.42387e-06
4.77914e-06
3.90002e-06
2.9999e-06
2.1985e-06
1.54607e-06
1.04861e-06
6.88543e-07
4.38985e-07
2.72387e-07
1.64806e-07
9.73872e-08
5.62809e-08
3.18462e-08
1.76617e-08
9.60887e-09
5.13246e-09
2.69339e-09
1.38955e-09
7.05181e-10
3.52219e-10
1.7323e-10
8.39316e-11
4.00776e-11
1.88678e-11
8.76068e-12
4.01329e-12
1.81446e-12
8.09851e-13
3.56941e-13
1.55395e-13
6.68398e-14
2.84114e-14
1.19374e-14
4.95881e-15
2.03697e-15
8.27595e-16
3.32625e-16
1.32274e-16
5.20539e-17
2.02748e-17
7.81732e-18
2.98414e-18
1.12799e-18
4.22254e-19
1.56562e-19
5.75037e-20
2.09247e-20
7.54447e-21
2.69559e-21
9.54515e-22
3.35015e-22
1.16558e-22
4.02034e-23
1.37489e-23
4.66229e-24
1.56782e-24
5.22878e-25
1.72961e-25
5.67514e-26
1.84723e-26
5.96509e-27
1.91117e-27
6.07573e-28
1.91668e-28
6.00042e-29
1.86435e-29
5.74929e-30
1.75984e-30
5.34725e-31
1.61293e-31
4.83008e-32
1.43606e-32
4.23934e-33
1.24267e-33
3.61715e-34
1.04558e-34
3.00161e-35
8.55805e-36
2.42351e-36
6.81686e-37
1.90466e-37
5.28643e-38
1.45761e-38
3.99279e-39
1.08664e-39
2.93823e-40
7.89406e-41
2.1074e-41
5.5904e-42
1.47369e-42
3.86061e-43
1.0051e-43
2.60066e-44
6.68796e-45
1.70946e-45
4.34303e-46
1.09676e-46
2.75319e-47
6.87029e-48
1.70431e-48
4.20308e-49
1.0305e-49
2.51194e-50
6.08778e-51
1.46695e-51
3.51471e-52
8.37333e-53
1.98359e-53
4.67269e-54
1.0946e-54
2.54992e-55
5.90743e-56
1.36107e-56
3.1188e-57
7.10772e-58
1.61109e-58
3.63221e-59
8.14505e-60
1.81677e-60
4.03088e-61
8.89624e-62
1.95313e-62
4.26563e-63
9.26778e-64
2.00317e-64
4.30746e-65
9.21503e-66
1.96134e-66
4.15339e-67
8.75094e-68
1.83451e-68
3.82654e-69
7.94192e-70
1.64016e-70
3.37054e-71
6.89247e-72
1.40255e-72
2.84018e-73
5.72348e-74
1.14782e-74
2.29083e-75
4.5502e-76
8.99483e-77
1.76966e-77
3.4652e-78
6.75335e-79
1.30999e-79
2.52923e-80
4.86052e-81
9.29743e-82
1.77025e-82
3.35513e-83
6.32984e-84
1.18876e-84
2.22238e-85
4.13595e-86
7.66254e-87
1.41325e-87
2.5949e-88
4.74335e-89
8.63217e-90
1.56398e-90
2.82118e-91
5.06665e-92
9.05963e-93
1.6129e-93
2.85902e-94
5.046e-95
8.86759e-96
1.55166e-96
2.70353e-97
4.69043e-98
8.10304e-99
1.39394e-99
2.38786e-100
4.07331e-101
6.91938e-102
1.1705e-102
1.97184e-103
3.30804e-104
5.52682e-105
9.19585e-106
1.52379e-106
2.51469e-107
4.13308e-108
6.76547e-109
1.10297e-109
1.79093e-110
2.89632e-111
4.66525e-112
7.48458e-113
1.196e-113
1.90358e-114
3.01781e-115
4.76542e-116
7.49555e-117
1.17437e-117
1.83277e-118
2.8492e-119
4.41216e-120
6.80611e-121
1.04586e-121
1.60094e-122
2.44126e-123
3.70846e-124
5.61202e-125
8.46048e-126
1.27065e-126
1.90116e-127
2.83384e-128
4.20827e-129
6.22596e-130
9.17676e-131
1.34759e-131
1.97158e-132
2.87386e-133
4.17366e-134
6.03908e-135
8.70629e-136
1.25057e-136
1.78978e-137
2.55219e-138
3.62622e-139
5.13363e-140
7.24152e-141
1.01783e-141
1.42549e-142
1.9893e-143
2.76623e-144
3.83296e-145
5.29225e-146
7.28134e-147
9.98277e-148
1.36384e-148
1.85675e-149
2.51899e-150
3.40551e-151
4.58806e-152
6.15982e-153
8.24147e-154
1.09886e-154
1.46011e-155
1.93347e-156
2.55153e-157
3.35569e-158
4.39829e-159
5.74525e-160
7.47932e-161
9.7039e-162
1.25478e-162
1.61705e-163
2.07695e-164
2.65872e-165
3.39211e-166
4.3134e-167
5.46671e-168
6.90546e-169
8.69407e-170
1.09099e-170
1.36455e-171
1.7011e-172
2.11373e-173
2.61789e-174
3.23173e-175
3.97655e-176
4.87718e-177
5.96246e-178
7.26573e-179
8.82538e-180
1.06854e-180
1.2896e-181
1.55142e-182
1.86045e-183
2.22394e-184
2.65e-185
3.14769e-186
3.72704e-187
4.39911e-188
5.17603e-189
6.07104e-190
7.09852e-191
8.27394e-192
9.61393e-193
1.11362e-193
1.28594e-194
1.48032e-195
1.69882e-196
1.94356e-197
2.21671e-198
2.52048e-199
2.85709e-200
3.22875e-201
3.63761e-202
4.08576e-203
4.57517e-204
5.10766e-205
5.68485e-206
6.30816e-207
6.97869e-208
7.69726e-209
8.46431e-210
9.2799e-211
1.01436e-211
1.10547e-212
1.20116e-213
1.30126e-214
1.40551e-215
1.51362e-216
1.62523e-217
1.73991e-218
1.8572e-219
1.97657e-220
2.09744e-221
2.21918e-222
2.34113e-223
2.46256e-224
2.58276e-225
2.70095e-226
2.81635e-227
2.92818e-228
3.03564e-229
3.13798e-230
3.23441e-231
3.32423e-232
3.40674e-233
3.48129e-234
3.54731e-235
3.60426e-236
3.65168e-237
3.68921e-238
3.71655e-239
3.73347e-240
3.73986e-241
3.73569e-242
3.72099e-243
3.69592e-244
3.66071e-245
3.61566e-246
3.56117e-247
3.49769e-248
3.42576e-249
3.34595e-250
3.25892e-251
3.16534e-252
3.06592e-253
2.96141e-254
2.85255e-255
2.74012e-256
2.62487e-257
2.50756e-258
2.38891e-259
2.26964e-260
2.15042e-261
2.0319e-262
1.91467e-263
1.7993e-264
1.68628e-265
1.57606e-266
1.46906e-267
1.36562e-268
1.26603e-269
1.17054e-270
1.07933e-271
9.92557e-273
9.10306e-274
8.32633e-275
7.59548e-276
6.91025e-277
6.27006e-278
5.67401e-279
5.12096e-280
4.60953e-281
4.13817e-282
3.70516e-283
3.30868e-284
2.94683e-285
2.61762e-286
2.31906e-287
2.04915e-288
1.8059e-289
1.58734e-290
1.39159e-291
1.21678e-292
1.06115e-293
9.23012e-295
8.00765e-296
6.92901e-297
5.98009e-298
5.14773e-299
4.41974e-300
3.78489e-301
3.23285e-302
2.7542e-303
2.34037e-304
1.9836e-305
1.6769e-306
1.41397e-307
1.18922e-308
9.9763e-310
8.34766e-311
6.96705e-312
5.79996e-313
4.81607e-314
3.98891e-315
3.29541e-316
2.71558e-317
2.23209e-318
1.83007e-319
1.49652e-320
1.22034e-321
9.88131e-323
4.94066e-324
0
0
0
0
0
0
0
0
0
0
0
0
0
0
0
0
0
0
0
0
0
0
0
0
0
0
0
0
0
0
0
0
0
0
0
0
0
0
0
0
0
0
0
0
0
0
0
0
0
0
0
0
0
0
0
0
0
0
0
0
0
0
0
0
0
0
0
0
0
0
0
0
0
0
0
0
0
0
0
0
0
0
0
0
0
0
0
0
0
0
0
0
0
0
0
0
0
0
0
0
0
0
0
0
0
0
0
0
0
0
0
0
0
0
0
0
0
0
0
0
0
0
0
0
0
0
0
0
0
0
0
0
0
0
0
0
0
0
0
0
0
0
0
0
0
0
0
0
0
0
0
0
0
0
0
0
0
0
0
0
0
0
0
0
0
0
0
0
0
0
0
0
0
0
0
0
0
0
0
0
0
0
0
0
0
0
0
0
0
0
0
0
0
0
0
0
0
0
0
0
0
0
0
0
0
0
0
0
0
0
0
0
0
0
0
0
0
0
0
0
0
0
0
0
0
0
0
0
0
0
0
0
0
0
0
0
0
0
0
0
0
0
0
0
0
0
0
0
0
0
0
0
0
0
0
0
0
0
0
0
0
0
0
0
0
0
0
0
0
0
0
0
0
0
0
0
0
0
0
0
0
0
0
0
0
0
0
0
0
0
0
0
0
0
0
0
0
0
0
0
0
0
0
0
0
0
0
0
0
0
0
0
0
0
0
0
0
0
0
0
0
0
0
0
0
0
0
0
0
0
0
0
0
0
0
0
0
0
0
0
0
0
0
0
0
0
0
0
0
0
0
0
0
0
0
0
0
0
0
0
0
0
0
0
0
0
0
0
0
0
0
0
0
0
0
0
0
0
0
0
0
0
0
0
0
0
0
0
0
0
0
0
0
0
0
0
0
0
0
0
0
0
0
0
0
0
0
0
0
0
0
0
0
0
0
0
0
0
0
0
0
0
0
0
0
0
0
0
0
0
0
0
0
0
0
0
0
0
0
0
0
0
0
0
0
0
0
0
0
0
0
0
0
0
0
0
0
0
0
0
0
0
0
0
0
0
0
0
0
0
0
0
0
0
0
0
0
0
0
0
0
0
0
0
0
0
0
0
0
0
0
0
0
0
0
0
0
0
0
0
0
0
0
0
0
0
0
0
0
0
0
0
0
0
0
0
0
0
0
0
0
0
0
0
0
0
0
0
0
0
0
0
0
0
0
0
0
0
0
0
0
0
0
0
0
0
0
0
0
0
0
0
0
0
0
0
0
0
0
0
0
0
0
0
0
0
0
0
0
0
0
0
0
0
0
0
0
0
0
0
0
0
0
0
0
0
0
0
0
0
0
0
0
0
0
0
0
0
0
0
0
0
0
0
0
0
0
0
0
0
0
0
0
0
0
0
0
0
0
0
0
0
0
0
0
0
0
0
0
0
0
0
0
0
0
0
0
0
0
0
0
0
0
0
0
0
0
0
0
0
0
0
0
0
0
0
0
0
0
0
0
0
0
0
0
0
0
0
0
0
0
0
0
0
0
0
0
0
0
0
0
0
0
0
0
0
0
0
0
0
0
0
0
0
0
0
0
0
0
0
0
0
0
0
0
0
0
0
0
0
0
0
0
0
0
0
0
0
0
0
0
0
0
0
0
0
0
0
0
0
0
0
0
0
0
0
0
0
0
0
0
0
0
0
0
0
0
0
0
0
0
0
0
0
0
0
0
0
0
0
0
0
0
0
0
0
0
0
0
0
0
0
0
0
0
0
0
0
0
0
0
0
0
0
0
0
0
0
0
0
0
0
0
0
0
0
0
0
0
0
0
0
0
0
0
0
0
0
0
0
0
0
0
0
0
0
0
0
0
0
0
0
0
0
0
0
0
0
0
0
0
0
0
0
0
0
0
0
0
0
0
0
0
0
0
0
0
0
0
0
0
0
0
0
0
0
0
0
0
0
0
0
0
0
0
0
0
0
0
0
0
0
0
0
0
0
0
0
0
0
0
0
0
0
0
0
0
0
0
0
0
0
0
0
0
0
0
0
0
0
0
0
0
0
0
0
0
0
0
0
0
0
0
0
0
0
0
0
0
0
0
0
0
0
0
0
0
0
0
0
0
0
0
0
0
0
0
0
0
0
0
0
0
0
0
0
0
0
0
0
0
0
0
0
0
0
0
0
0
0
0
0
0
0
0
0
0
0
0
0
0
0
0
0
0
0
0
0
0
0
0
0
0
0
0
0
0
0
0
0
0
0
0
0
0
0
0
0
0
0
0
0
0
0
0
0
0
0
0
0
0
0
0
0
0
0
0
0
0
0
0
0
0
0
0
0
0
0
0
0
0
0
0
0
0
0
0
0
0
0
0
0
0
0
0
0
0
0
0
0
0
0
0
0
0
0
0
0
0
0
0
0
0
0
0
0
0
0
0
0
0
0
0
0
0
0
0
0
0
0
0
0
0
0
0
0
0
0
0
0
0
0
0
0
0.0636839
0.0373115