# vtk DataFile Version 2.0
FlowField
ASCII
DATASET STRUCTURED_GRID
DIMENSIONS 1602 1 52
POINTS 83304 float
0 0 0
0.1 0 0
0.2 0 0
0.3 0 0
0.4 0 0
0.5 0 0
0.6 0 0
0.7 0 0
0.8 0 0
0.9 0 0
1 0 0
1.1 0 0
1.2 0 0
1.3 0 0
1.4 0 0
1.5 0 0
1.6 0 0
1.7 0 0
1.8 0 0
1.9 0 0
2 0 0
2.1 0 0
2.2 0 0
2.3 0 0
2.4 0 0
2.5 0 0
2.6 0 0
2.7 0 0
2.8 0 0
2.9 0 0
3 0 0
3.1 0 0
3.2 0 0
3.3 0 0
3.4 0 0
3.5 0 0
3.6 0 0
3.7 0 0
3.8 0 0
3.9 0 0
4 0 0
4.1 0 0
4.2 0 0
4.3 0 0
4.4 0 0
4.5 0 0
4.6 0 0
4.7 0 0
4.8 0 0
4.9 0 0
5 0 0
5.1 0 0
5.2 0 0
5.3 0 0
5.4 0 0
5.5 0 0
5.6 0 0
5.7 0 0
5.8 0 0
5.9 0 0
6 0 0
6.1 0 0
6.2 0 0
6.3 0 0
6.4 0 0
6.5 0 0
6.6 0 0
6.7 0 0
6.8 0 0
6.9 0 0
7 0 0
7.1 0 0
7.2 0 0
7.3 0 0
7.4 0 0
7.5 0 0
7.6 0 0
7.7 0 0
7.8 0 0
7.9 0 0
8 0 0
8.1 0 0
8.2 0 0
8.3 0 0
8.4 0 0
8.5 0 0
8.6 0 0
8.7 0 0
8.8 0 0
8.9 0 0
9 0 0
9.1 0 0
9.2 0 0
9.3 0 0
9.4 0 0
9.5 0 0
9.6 0 0
9.7 0 0
9.8 0 0
9.9 0 0
10 0 0
10.1 0 0
10.2 0 0
10.3 0 0
10.4 0 0
10.5 0 0
10.6 0 0
10.7 0 0
10.8 0 0
10.9 0 0
11 0 0
11.1 0 0
11.2 0 0
11.3 0 0
11.4 0 0
11.5 0 0
11.6 0 0
11.7 0 0
11.8 0 0
11.9 0 0
12 0 0
12.1 0 0
12.2 0 0
12.3 0 0
12.4 0 0
12.5 0 0
12.6 0 0
12.7 0 0
12.8 0 0
12.9 0 0
13 0 0
13.1 0 0
13.2 0 0
13.3 0 0
13.4 0 0
13.5 0 0
13.6 0 0
13.7 0 0
13.8 0 0
13.9 0 0
14 0 0
14.1 0 0
14.2 0 0
14.3 0 0
14.4 0 0
14.5 0 0
14.6 0 0
14.7 0 0
14.8 0 0
14.9 0 0
15 0 0
15.1 0 0
15.2 0 0
15.3 0 0
15.4 0 0
15.5 0 0
15.6 0 0
15.7 0 0
15.8 0 0
15.9 0 0
16 0 0
16.1 0 0
16.2 0 0
16.3 0 0
16.4 0 0
16.5 0 0
16.6 0 0
16.7 0 0
16.8 0 0
16.9 0 0
17 0 0
17.1 0 0
17.2 0 0
17.3 0 0
17.4 0 0
17.5 0 0
17.6 0 0
17.7 0 0
17.8 0 0
17.9 0 0
18 0 0
18.1 0 0
18.2 0 0
18.3 0 0
18.4 0 0
18.5 0 0
18.6 0 0
18.7 0 0
18.8 0 0
18.9 0 0
19 0 0
19.1 0 0
19.2 0 0
19.3 0 0
19.4 0 0
19.5 0 0
19.6 0 0
19.7 0 0
19.8 0 0
19.9 0 0
20 0 0
20.1 0 0
20.2 0 0
20.3 0 0
20.4 0 0
20.5 0 0
20.6 0 0
20.7 0 0
20.8 0 0
20.9 0 0
21 0 0
21.1 0 0
21.2 0 0
21.3 0 0
21.4 0 0
21.5 0 0
21.6 0 0
21.7 0 0
21.8 0 0
21.9 0 0
22 0 0
22.1 0 0
22.2 0 0
22.3 0 0
22.4 0 0
22.5 0 0
22.6 0 0
22.7 0 0
22.8 0 0
22.9 0 0
23 0 0
23.1 0 0
23.2 0 0
23.3 0 0
23.4 0 0
23.5 0 0
23.6 0 0
23.7 0 0
23.8 0 0
23.9 0 0
24 0 0
24.1 0 0
24.2 0 0
24.3 0 0
24.4 0 0
24.5 0 0
24.6 0 0
24.7 0 0
24.8 0 0
24.9 0 0
25 0 0
25.1 0 0
25.2 0 0
25.3 0 0
25.4 0 0
25.5 0 0
25.6 0 0
25.7 0 0
25.8 0 0
25.9 0 0
26 0 0
26.1 0 0
26.2 0 0
26.3 0 0
26.4 0 0
26.5 0 0
26.6 0 0
26.7 0 0
26.8 0 0
26.9 0 0
27 0 0
27.1 0 0
27.2 0 0
27.3 0 0
27.4 0 0
27.5 0 0
27.6 0 0
27.7 0 0
27.8 0 0
27.9 0 0
28 0 0
28.1 0 0
28.2 0 0
28.3 0 0
28.4 0 0
28.5 0 0
28.6 0 0
28.7 0 0
28.8 0 0
28.9 0 0
29 0 0
29.1 0 0
29.2 0 0
29.3 0 0
29.4 0 0
29.5 0 0
29.6 0 0
29.7 0 0
29.8 0 0
29.9 0 0
30 0 0
30.1 0 0
30.2 0 0
30.3 0 0
30.4 0 0
30.5 0 0
30.6 0 0
30.7 0 0
30.8 0 0
30.9 0 0
31 0 0
31.1 0 0
31.2 0 0
31.3 0 0
31.4 0 0
31.5 0 0
31.6 0 0
31.7 0 0
31.8 0 0
31.9 0 0
32 0 0
32.1 0 0
32.2 0 0
32.3 0 0
32.4 0 0
32.5 0 0
32.6 0 0
32.7 0 0
32.8 0 0
32.9 0 0
33 0 0
33.1 0 0
33.2 0 0
33.3 0 0
33.4 0 0
33.5 0 0
33.6 0 0
33.7 0 0
33.8 0 0
33.9 0 0
34 0 0
34.1 0 0
34.2 0 0
34.3 0 0
34.4 0 0
34.5 0 0
34.6 0 0
34.7 0 0
34.8 0 0
34.9 0 0
35 0 0
35.1 0 0
35.2 0 0
35.3 0 0
35.4 0 0
35.5 0 0
35.6 0 0
35.7 0 0
35.8 0 0
35.9 0 0
36 0 0
36.1 0 0
36.2 0 0
36.3 0 0
36.4 0 0
36.5 0 0
36.6 0 0
36.7 0 0
36.8 0 0
36.9 0 0
37 0 0
37.1 0 0
37.2 0 0
37.3 0 0
37.4 0 0
37.5 0 0
37.6 0 0
37.7 0 0
37.8 0 0
37.9 0 0
38 0 0
38.1 0 0
38.2 0 0
38.3 0 0
38.4 0 0
38.5 0 0
38.6 0 0
38.7 0 0
38.8 0 0
38.9 0 0
39 0 0
39.1 0 0
39.2 0 0
39.3 0 0
39.4 0 0
39.5 0 0
39.6 0 0
39.7 0 0
39.8 0 0
39.9 0 0
40 0 0
40.1 0 0
40.2 0 0
40.3 0 0
40.4 0 0
40.5 0 0
40.6 0 0
40.7 0 0
40.8 0 0
40.9 0 0
41 0 0
41.1 0 0
41.2 0 0
41.3 0 0
41.4 0 0
41.5 0 0
41.6 0 0
41.7 0 0
41.8 0 0
41.9 0 0
42 0 0
42.1 0 0
42.2 0 0
42.3 0 0
42.4 0 0
42.5 0 0
42.6 0 0
42.7 0 0
42.8 0 0
42.9 0 0
43 0 0
43.1 0 0
43.2 0 0
43.3 0 0
43.4 0 0
43.5 0 0
43.6 0 0
43.7 0 0
43.8 0 0
43.9 0 0
44 0 0
44.1 0 0
44.2 0 0
44.3 0 0
44.4 0 0
44.5 0 0
44.6 0 0
44.7 0 0
44.8 0 0
44.9 0 0
45 0 0
45.1 0 0
45.2 0 0
45.3 0 0
45.4 0 0
45.5 0 0
45.6 0 0
45.7 0 0
45.8 0 0
45.9 0 0
46 0 0
46.1 0 0
46.2 0 0
46.3 0 0
46.4 0 0
46.5 0 0
46.6 0 0
46.7 0 0
46.8 0 0
46.9 0 0
47 0 0
47.1 0 0
47.2 0 0
47.3 0 0
47.4 0 0
47.5 0 0
47.6 0 0
47.7 0 0
47.8 0 0
47.9 0 0
48 0 0
48.1 0 0
48.2 0 0
48.3 0 0
48.4 0 0
48.5 0 0
48.6 0 0
48.7 0 0
48.8 0 0
48.9 0 0
49 0 0
49.1 0 0
49.2 0 0
49.3 0 0
49.4 0 0
49.5 0 0
49.6 0 0
49.7 0 0
49.8 0 0
49.9 0 0
50 0 0
50.1 0 0
50.2 0 0
50.3 0 0
50.4 0 0
50.5 0 0
50.6 0 0
50.7 0 0
50.8 0 0
50.9 0 0
51 0 0
51.1 0 0
51.2 0 0
51.3 0 0
51.4 0 0
51.5 0 0
51.6 0 0
51.7 0 0
51.8 0 0
51.9 0 0
52 0 0
52.1 0 0
52.2 0 0
52.3 0 0
52.4 0 0
52.5 0 0
52.6 0 0
52.7 0 0
52.8 0 0
52.9 0 0
53 0 0
53.1 0 0
53.2 0 0
53.3 0 0
53.4 0 0
53.5 0 0
53.6 0 0
53.7 0 0
53.8 0 0
53.9 0 0
54 0 0
54.1 0 0
54.2 0 0
54.3 0 0
54.4 0 0
54.5 0 0
54.6 0 0
54.7 0 0
54.8 0 0
54.9 0 0
55 0 0
55.1 0 0
55.2 0 0
55.3 0 0
55.4 0 0
55.5 0 0
55.6 0 0
55.7 0 0
55.8 0 0
55.9 0 0
56 0 0
56.1 0 0
56.2 0 0
56.3 0 0
56.4 0 0
56.5 0 0
56.6 0 0
56.7 0 0
56.8 0 0
56.9 0 0
57 0 0
57.1 0 0
57.2 0 0
57.3 0 0
57.4 0 0
57.5 0 0
57.6 0 0
57.7 0 0
57.8 0 0
57.9 0 0
58 0 0
58.1 0 0
58.2 0 0
58.3 0 0
58.4 0 0
58.5 0 0
58.6 0 0
58.7 0 0
58.8 0 0
58.9 0 0
59 0 0
59.1 0 0
59.2 0 0
59.3 0 0
59.4 0 0
59.5 0 0
59.6 0 0
59.7 0 0
59.8 0 0
59.9 0 0
60 0 0
60.1 0 0
60.2 0 0
60.3 0 0
60.4 0 0
60.5 0 0
60.6 0 0
60.7 0 0
60.8 0 0
60.9 0 0
61 0 0
61.1 0 0
61.2 0 0
61.3 0 0
61.4 0 0
61.5 0 0
61.6 0 0
61.7 0 0
61.8 0 0
61.9 0 0
62 0 0
62.1 0 0
62.2 0 0
62.3 0 0
62.4 0 0
62.5 0 0
62.6 0 0
62.7 0 0
62.8 0 0
62.9 0 0
63 0 0
63.1 0 0
63.2 0 0
63.3 0 0
63.4 0 0
63.5 0 0
63.6 0 0
63.7 0 0
63.8 0 0
63.9 0 0
64 0 0
64.1 0 0
64.2 0 0
64.3 0 0
64.4 0 0
64.5 0 0
64.6 0 0
64.7 0 0
64.8 0 0
64.9 0 0
65 0 0
65.1 0 0
65.2 0 0
65.3 0 0
65.4 0 0
65.5 0 0
65.6 0 0
65.7 0 0
65.8 0 0
65.9 0 0
66 0 0
66.1 0 0
66.2 0 0
66.3 0 0
66.4 0 0
66.5 0 0
66.6 0 0
66.7 0 0
66.8 0 0
66.9 0 0
67 0 0
67.1 0 0
67.2 0 0
67.3 0 0
67.4 0 0
67.5 0 0
67.6 0 0
67.7 0 0
67.8 0 0
67.9 0 0
68 0 0
68.1 0 0
68.2 0 0
68.3 0 0
68.4 0 0
68.5 0 0
68.6 0 0
68.7 0 0
68.8 0 0
68.9 0 0
69 0 0
69.1 0 0
69.2 0 0
69.3 0 0
69.4 0 0
69.5 0 0
69.6 0 0
69.7 0 0
69.8 0 0
69.9 0 0
70 0 0
70.1 0 0
70.2 0 0
70.3 0 0
70.4 0 0
70.5 0 0
70.6 0 0
70.7 0 0
70.8 0 0
70.9 0 0
71 0 0
71.1 0 0
71.2 0 0
71.3 0 0
71.4 0 0
71.5 0 0
71.6 0 0
71.7 0 0
71.8 0 0
71.9 0 0
72 0 0
72.1 0 0
72.2 0 0
72.3 0 0
72.4 0 0
72.5 0 0
72.6 0 0
72.7 0 0
72.8 0 0
72.9 0 0
73 0 0
73.1 0 0
73.2 0 0
73.3 0 0
73.4 0 0
73.5 0 0
73.6 0 0
73.7 0 0
73.8 0 0
73.9 0 0
74 0 0
74.1 0 0
74.2 0 0
74.3 0 0
74.4 0 0
74.5 0 0
74.6 0 0
74.7 0 0
74.8 0 0
74.9 0 0
75 0 0
75.1 0 0
75.2 0 0
75.3 0 0
75.4 0 0
75.5 0 0
75.6 0 0
75.7 0 0
75.8 0 0
75.9 0 0
76 0 0
76.1 0 0
76.2 0 0
76.3 0 0
76.4 0 0
76.5 0 0
76.6 0 0
76.7 0 0
76.8 0 0
76.9 0 0
77 0 0
77.1 0 0
77.2 0 0
77.3 0 0
77.4 0 0
77.5 0 0
77.6 0 0
77.7 0 0
77.8 0 0
77.9 0 0
78 0 0
78.1 0 0
78.2 0 0
78.3 0 0
78.4 0 0
78.5 0 0
78.6 0 0
78.7 0 0
78.8 0 0
78.9 0 0
79 0 0
79.1 0 0
79.2 0 0
79.3 0 0
79.4 0 0
79.5 0 0
79.6 0 0
79.7 0 0
79.8 0 0
79.9 0 0
80 0 0
80.1 0 0
80.2 0 0
80.3 0 0
80.4 0 0
80.5 0 0
80.6 0 0
80.7 0 0
80.8 0 0
80.9 0 0
81 0 0
81.1 0 0
81.2 0 0
81.3 0 0
81.4 0 0
81.5 0 0
81.6 0 0
81.7 0 0
81.8 0 0
81.9 0 0
82 0 0
82.1 0 0
82.2 0 0
82.3 0 0
82.4 0 0
82.5 0 0
82.6 0 0
82.7 0 0
82.8 0 0
82.9 0 0
83 0 0
83.1 0 0
83.2 0 0
83.3 0 0
83.4 0 0
83.5 0 0
83.6 0 0
83.7 0 0
83.8 0 0
83.9 0 0
84 0 0
84.1 0 0
84.2 0 0
84.3 0 0
84.4 0 0
84.5 0 0
84.6 0 0
84.7 0 0
84.8 0 0
84.9 0 0
85 0 0
85.1 0 0
85.2 0 0
85.3 0 0
85.4 0 0
85.5 0 0
85.6 0 0
85.7 0 0
85.8 0 0
85.9 0 0
86 0 0
86.1 0 0
86.2 0 0
86.3 0 0
86.4 0 0
86.5 0 0
86.6 0 0
86.7 0 0
86.8 0 0
86.9 0 0
87 0 0
87.1 0 0
87.2 0 0
87.3 0 0
87.4 0 0
87.5 0 0
87.6 0 0
87.7 0 0
87.8 0 0
87.9 0 0
88 0 0
88.1 0 0
88.2 0 0
88.3 0 0
88.4 0 0
88.5 0 0
88.6 0 0
88.7 0 0
88.8 0 0
88.9 0 0
89 0 0
89.1 0 0
89.2 0 0
89.3 0 0
89.4 0 0
89.5 0 0
89.6 0 0
89.7 0 0
89.8 0 0
89.9 0 0
90 0 0
90.1 0 0
90.2 0 0
90.3 0 0
90.4 0 0
90.5 0 0
90.6 0 0
90.7 0 0
90.8 0 0
90.9 0 0
91 0 0
91.1 0 0
91.2 0 0
91.3 0 0
91.4 0 0
91.5 0 0
91.6 0 0
91.7 0 0
91.8 0 0
91.9 0 0
92 0 0
92.1 0 0
92.2 0 0
92.3 0 0
92.4 0 0
92.5 0 0
92.6 0 0
92.7 0 0
92.8 0 0
92.9 0 0
93 0 0
93.1 0 0
93.2 0 0
93.3 0 0
93.4 0 0
93.5 0 0
93.6 0 0
93.7 0 0
93.8 0 0
93.9 0 0
94 0 0
94.1 0 0
94.2 0 0
94.3 0 0
94.4 0 0
94.5 0 0
94.6 0 0
94.7 0 0
94.8 0 0
94.9 0 0
95 0 0
95.1 0 0
95.2 0 0
95.3 0 0
95.4 0 0
95.5 0 0
95.6 0 0
95.7 0 0
95.8 0 0
95.9 0 0
96 0 0
96.1 0 0
96.2 0 0
96.3 0 0
96.4 0 0
96.5 0 0
96.6 0 0
96.7 0 0
96.8 0 0
96.9 0 0
97 0 0
97.1 0 0
97.2 0 0
97.3 0 0
97.4 0 0
97.5 0 0
97.6 0 0
97.7 0 0
97.8 0 0
97.9 0 0
98 0 0
98.1 0 0
98.2 0 0
98.3 0 0
98.4 0 0
98.5 0 0
98.6 0 0
98.7 0 0
98.8 0 0
98.9 0 0
99 0 0
99.1 0 0
99.2 0 0
99.3 0 0
99.4 0 0
99.5 0 0
99.6 0 0
99.7 0 0
99.8 0 0
99.9 0 0
100 0 0
100.1 0 0
100.2 0 0
100.3 0 0
100.4 0 0
100.5 0 0
100.6 0 0
100.7 0 0
100.8 0 0
100.9 0 0
101 0 0
101.1 0 0
101.2 0 0
101.3 0 0
101.4 0 0
101.5 0 0
101.6 0 0
101.7 0 0
101.8 0 0
101.9 0 0
102 0 0
102.1 0 0
102.2 0 0
102.3 0 0
102.4 0 0
102.5 0 0
102.6 0 0
102.7 0 0
102.8 0 0
102.9 0 0
103 0 0
103.1 0 0
103.2 0 0
103.3 0 0
103.4 0 0
103.5 0 0
103.6 0 0
103.7 0 0
103.8 0 0
103.9 0 0
104 0 0
104.1 0 0
104.2 0 0
104.3 0 0
104.4 0 0
104.5 0 0
104.6 0 0
104.7 0 0
104.8 0 0
104.9 0 0
105 0 0
105.1 0 0
105.2 0 0
105.3 0 0
105.4 0 0
105.5 0 0
105.6 0 0
105.7 0 0
105.8 0 0
105.9 0 0
106 0 0
106.1 0 0
106.2 0 0
106.3 0 0
106.4 0 0
106.5 0 0
106.6 0 0
106.7 0 0
106.8 0 0
106.9 0 0
107 0 0
107.1 0 0
107.2 0 0
107.3 0 0
107.4 0 0
107.5 0 0
107.6 0 0
107.7 0 0
107.8 0 0
107.9 0 0
108 0 0
108.1 0 0
108.2 0 0
108.3 0 0
108.4 0 0
108.5 0 0
108.6 0 0
108.7 0 0
108.8 0 0
108.9 0 0
109 0 0
109.1 0 0
109.2 0 0
109.3 0 0
109.4 0 0
109.5 0 0
109.6 0 0
109.7 0 0
109.8 0 0
109.9 0 0
110 0 0
110.1 0 0
110.2 0 0
110.3 0 0
110.4 0 0
110.5 0 0
110.6 0 0
110.7 0 0
110.8 0 0
110.9 0 0
111 0 0
111.1 0 0
111.2 0 0
111.3 0 0
111.4 0 0
111.5 0 0
111.6 0 0
111.7 0 0
111.8 0 0
111.9 0 0
112 0 0
[...]
POINT_DATA 83304

SCALARS pressure float 1
LOOKUP_TABLE default
0
0
0
0
0
0
0
0
0
0
0
0
0
0
0
0
0
0
0
0
0
0
0
0
0
0
0
0
0
0
0
0
0
0
0
0
0
0
0
0
0
0
0
0
0
0
0
0
0
0
0
0
0
0
0
0
0
0
0
0
0
0
0
0
0
0
0
0
0
0
0
0
0
0
0
0
0
0
0
0
0
0
0
0
0
0
0
0
0
0
0
0
0
0
0
0
0
0
0
0
0
0
0
0
0
0
0
0
0
0
0
0
0
0
0
0
0
0
0
0
0
0
0
0
0
0
0
0
0
0
0
0
0
0
0
0
0
0
0
0
0
0
0
0
0
0
0
0
0
0
0
0
0
0
0
0
0
0
0
0
0
0
0
0
0
0
0
0
0
0
0
0
0
0
0
0
0
0
0
0
0
0
0
0
0
0
0
0
0
0
0
0
0
0
0
0
0
0
0
0
0
0
0
0
0
0
0
0
0
0
0
0
0
0
0
0
0
0
0
0
0
0
0
0
0
0
0
0
0
0
0
0
0
0
0
0
0
0
0
0
0
0
0
0
0
0
0
0
0
0
0
0
0
0
0
0
0
0
0
0
0
0
0
0
0
0
0
0
0
0
0
0
0
0
0
0
0
0
0
0
0
0
0
0
0
0
0
0
0
0
0
0
0
0
0
0
0
0
0
0
0
0
0
0
0
0
0
0
0
0
0
0
0
0
0
0
0
0
0
0
0
0
0
0
0
0
0
0
0
0
0
0
0
0
0
0
0
0
0
0
0
0
0
0
0
0
0
0
0
0
0
0
0
0
0
0
0
0
0
0
0
0
0
0
0
0
0
0
0
0
0
0
0
0
0
0
0
0
0
0
0
0
0
0
0
0
0
0
0
0
0
0
0
0
0
0
0
0
0
0
0
0
0
0
0
0
0
0
0
0
0
0
0
0
0
0
0
0
0
0
0
0
0
0
0
0
0
0
0
0
0
0
0
0
0
0
0
0
0
0
0
0
0
0
0
0
0
0
0
0
0
0
0
0
0
0
0
0
0
0
0
0
0
0
0
0
0
0
0
0
0
0
0
0
0
0
0
0
0
0
0
0
0
0
0
0
0
0
0
0
0
0
0
0
0
0
0
0
0
0
0
0
0
0
0
0
0
0
0
0
0
0
0
0
0
0
0
0
0
0
0
0
0
0
0
0
0
0
0
0
0
0
0
0
0
0
0
0
0
0
0
0
0
0
0
0
0
0
0
0
0
0
0
0
0
0
0
0
0
0
0
0
0
0
0
0
0
0
0
0
0
0
0
0
0
0
0
0
0
0
0
0
0
0
0
0
0
0
0
0
0
0
0
0
0
0
0
0
0
0
0
0
0
0
0
0
0
0
0
0
0
0
0
0
0
0
0
0
0
0
0
0
0
0
0
0
0
0
0
0
0
0
0
0
0
0
0
0
0
0
0
0
0
0
0
0
0
0
0
0
0
0
0
0
0
0
0
0
0
0
0
0
0
0
0
0
0
0
0
0
0
0
0
0
0
0
0
0
0
0
0
0
0
0
0
0
0
0
0
0
0
0
0
0
0
0
0
0
0
0
0
0
0
0
0
0
0
0
0
0
0
0
0
0
0
0
0
0
0
0
0
0
0
0
0
0
0
0
0
0
0
0
0
0
0
0
0
0
0
0
0
0
0
0
0
0
0
0
0
0
0
0
0
0
0
0
0
0
0
0
0
0
0
0
0
0
0
0
0
0
0
0
0
0
0
0
0
0
0
0
0
0
0
0
0
0
0
0
0
0
0
0
0
0
0
0
0
0
0
0
0
0
0
0
0
0
0
0
0
0
0
0
0
0
0
0
0
0
0
0
0
0
0
0
0
0
0
0
0
0
0
0
0
0
0
0
0
0
0
0
0
0
0
0
0
0
0
0
0
0
0
0
0
0
0
0
0
0
0
0
0
0
0
0
0
0
0
0
0
0
0
0
0
0
0
0
0
0
0
0
0
0
0
0
0
0
0
0
0
0
0
0
0
0
0
0
0
0
0
0
0
0
0
0
0
0
0
0
0
0
0
0
0
0
0
0
0
0
0
0
0
0
0
0
0
0
0
0
0
0
0
0
0
0
0
0
0
0
0
0
0
0
0
0
0
0
0
0
0
0
0
0
0
0
0
0
0
0
0
0
0
0
0
0
0
0
0
0
0
0
0
0
0
0
0
0
0
0
0
0
0
0
0
0
0
0
0
0
0
0
0
0
0
0
0
0
0
0
0
0
0
0
0
0
0
0
0
0
0
0
0
0
0
0
0
0
0
0
0
0
0
0
0
0
0
0
0
0
0
0
0
0
0
0
0
0
0
0
0
0
0
0
0
0
0
0
0
0
0
0
0
0
0
0
0
0
0
0
0
0
0
0
0
0
0
0
0
0
0
0
0
0
0
0
0
0
0
0
0
0
0
0
0
0
0
0
0
0
0
0
0
0
0
0
0
0
0
0
0
0
0
0
0
0
0
0
0
0
0
0
0
0
0
0
0
0
0
0
0
0
0
0
0
0
0
0
0
0
0
0
0
0
0
0
0
0
0
0
0
0
0
0
0
0
0
0
0
0
0
0
0
0
0
0
0
0
0
0
0
0
0
0
0
0
0
0
0
0
0
0
0
0
0
0
0
0
0
0
0
0
0
0
0
0
0
0
0
0
0
0
0
0
0
0
0
0
0
0
0
0
0
0
0
0
0
0
0
0
0
0
0
0
0
0
0
0
0
0
0
0
0
0
0
0
0
0
0
0
0
0
0
0
0
0
0
0
0
0
0
0
0
0
0
0
0
0
0
0
0
0
0
0
0
0
0
0
0
0
0
0
0
0
0
0
0
0
0
0
0
0
0
0
0
0
0
0
0
0
0
0
0
0
0
0
0
0
0
0
0
0
0
0
0
0
0
0
0
0
0
0
0
0
0
0
0
0
0
0
0
0
0
0
0
0
0
0
0
0
0
0
0
0
0
0
0
0
0
0
0
0
0
0
0
0
0
0
0
0
0
0
0
0
0
0
0
0
0
0
0
0
0
0
0
0
0
0
0
0
0
0
0
0
0
0
0
0
0
0
0
0
0
0
0
0
0
0
0
0
0
0
0
0
0
0
0
0
0
0
0
0
0
0
0
0
0
0
0
0
0
0
0
0
0
0
0
0
0
0
0
0
0
0
0
0
0
0
0
0
0
0
0
0
0
0
0
0
0
0
0
0
0
0
0
0
0
0
0
0
0
0
0
0
0
0
0
0
0
0
0
0
0
0
0
0
0
0
0
0
0
0
0
0
0
0
0
0
0
0
0
0
0
0
0
0
0
0
0
0
0
0
0
0
0
0
0
0
0
0
0
0
0
0
0
0
0
0
0
0
0
0
0
0
0
0
0
0
0
0
0
0
0
0
0
0
0
0
0
0
0
0
0
0
0
0
0
0
0
0
0
0
0
0
0
0
0
0
0
0
0
0
0
0
0
0
0
0
0
0
0
0
0
0
0
0
0
0
0
0
0
0
0
0
0
0
0
0
0
0
0
0
0
0
0
0
0
0
0
0
0
0
0
0
0
0
0
0
0
0
0
0
0
0
0
0
0
0
0
0
0
0
0
0
0
0.0776415
0.052903
0.0436505
0.0357426
0.03048
0.0271088
0.0248019
0.023116
0.0218008
0.0207277
0.0198235
0.0190436
0.0183596
0.0177519
0.0172066
0.0167134
0.0162643
0.0158532
0.0154749
0.0151254
0.0148012
0.0144993
0.0142174
0.0139533
0.0137052
0.0134714
0.0132506
0.0130416
0.0128434
0.0126549
0.0124753
0.012304
0.0121401
0.0119833
0.0118328
0.0116884
0.0115494
0.0114156
0.0112866
0.0111621
0.0110418
0.0109255
0.0108128
0.0107037
0.0105979
0.0104952
0.0103956
0.0102987
0.0102045
0.0101129
0.0100238
0.00993702
0.00985251
0.00977016
0.00968989
0.00961163
0.0095353
0.00946086
0.00938823
0.00931736
0.0092482
0.00918069
0.00911479
0.00905045
0.00898764
0.00892631
0.00886644
0.00880799
0.00875092
0.00869519
0.00864078
0.00858767
0.00853582
0.00848522
0.00843584
0.00838765
0.00834063
0.00829474
0.00824996
0.00820629
0.00816369
0.00812215
0.00808165
0.00804218
0.0080037
0.00796619
0.00792964
0.00789402
0.00785931
0.0078255
0.00779257
0.0077605
0.00772928
0.00769888
0.00766929
0.00764049
0.00761246
0.0075852
0.00755867
0.00753286
0.00750775
0.00748333
0.00745957
0.00743647
0.007414
0.00739215
0.00737091
0.00735026
0.00733019
0.00731068
0.00729174
0.00727334
0.00725548
0.00723815
0.00722133
0.00720502
0.0071892
0.00717386
0.00715897
0.00714452
0.00713048
0.00711682
0.00710352
0.00709056
0.00707792
0.00706558
0.00705354
0.0070418
0.00703038
0.0070193
0.00700859
0.0069983
0.00698847
0.0069791
0.00697023
0.00696182
0.00695382
0.00694613
0.0069386
0.00693106
0.00692331
0.00691516
0.00690644
0.0068971
0.00688721
0.00687705
0.00686713
0.00685828
0.00685162
0.00684854
0.00685066
0.00685966
0.00687709
0.00690412
0.00694118
0.00698756
0.00704103
0.00709743
0.00715031
0.0071907
0.00720708
0.00718556
0.00711039
0.00696487
0.00673271
0.00639986
0.00595695
0.00540216
0.00474453
0.00400741
0.00323166
0.00247784
0.00182672
0.00137713
0.00124055
0.00153261
0.00236217
0.00381985
0.00596729
0.00882967
0.0123939
0.016608
0.0213843
0.0266102
0.0321558
0.0378743
0.0436065
0.049202
0.0545233
0.0594208
0.0637275
0.0673073
0.070108
0.072153
0.0734823
0.0741104
0.0740337
0.0732605
0.0718293
0.0698072
0.0672784
0.0643339
0.0610653
0.0575617
0.0539072
0.0501793
0.046447
0.0427698
0.0391967
0.0357665
0.032508
0.029441
0.0265774
0.0239227
0.0214769
0.0192358
0.0171922
0.0153366
0.0136579
0.0121444
0.0107838
0.00956376
0.00847231
0.00749788
0.0066295
0.00585687
0.00517043
0.00456135
0.00402153
0.0035436
0.00312084
0.0027472
0.00241724
0.00212603
0.00186919
0.0016428
0.00144335
0.00126771
0.00111312
0.000977099
0.000857473
0.0007523
0.000659864
0.00057865
0.000507315
0.000444676
0.000389688
0.000341428
0.000299084
0.00026194
0.000229364
0.000200801
0.000175761
0.000153816
0.000134586
0.000117739
0.000102983
9.00602e-05
7.87453e-05
6.88402e-05
6.01706e-05
5.2584e-05
4.59463e-05
4.01397e-05
3.50611e-05
3.06201e-05
2.67372e-05
2.33428e-05
2.03761e-05
1.77836e-05
1.55185e-05
1.35397e-05
1.18113e-05
1.0302e-05
8.98409e-06
7.83357e-06
6.82932e-06
5.9529e-06
5.18814e-06
4.52093e-06
3.93893e-06
3.43132e-06
2.98868e-06
2.60274e-06
2.2663e-06
1.97305e-06
1.71749e-06
1.49481e-06
1.3008e-06
1.13181e-06
9.84625e-07
8.56456e-07
7.44861e-07
6.47713e-07
5.63152e-07
4.89561e-07
4.25525e-07
3.69811e-07
3.21346e-07
2.79193e-07
2.42535e-07
2.1066e-07
1.82948e-07
1.58859e-07
1.37923e-07
1.19729e-07
1.03921e-07
9.01868e-08
7.82573e-08
6.78963e-08
5.8899e-08
5.1087e-08
4.4305e-08
3.84181e-08
3.33089e-08
2.88752e-08
2.50283e-08
2.1691e-08
1.87961e-08
1.62855e-08
1.41082e-08
1.22205e-08
1.05839e-08
9.16527e-09
7.93574e-09
6.87025e-09
5.94703e-09
5.1472e-09
4.45436e-09
3.85427e-09
3.33459e-09
2.88461e-09
2.49502e-09
2.15777e-09
1.86587e-09
1.61325e-09
1.39465e-09
1.20551e-09
1.04189e-09
9.00366e-10
7.77965e-10
6.72117e-10
5.80597e-10
5.01475e-10
4.33081e-10
3.73967e-10
3.22881e-10
2.78738e-10
2.406e-10
2.07654e-10
1.79197e-10
1.5462e-10
1.33397e-10
1.15072e-10
9.92522e-11
8.55964e-11
7.38102e-11
6.36389e-11
5.48624e-11
4.72902e-11
4.07581e-11
3.51238e-11
3.02645e-11
2.60743e-11
2.24613e-11
1.93466e-11
1.66616e-11
1.43475e-11
1.23532e-11
1.06348e-11
9.15425e-12
7.87882e-12
6.78024e-12
5.83409e-12
5.01933e-12
4.31781e-12
3.71386e-12
3.19397e-12
2.74651e-12
2.36144e-12
2.03009e-12
1.74501e-12
1.49977e-12
1.28882e-12
1.10741e-12
9.51403e-13
8.17268e-13
7.01952e-13
6.02828e-13
5.17633e-13
4.44419e-13
3.8151e-13
3.27462e-13
2.81033e-13
2.41155e-13
2.06908e-13
1.775e-13
1.52252e-13
1.30577e-13
1.11974e-13
9.60075e-14
8.23071e-14
7.05525e-14
6.04685e-14
5.18189e-14
4.44005e-14
3.80389e-14
3.25839e-14
2.79067e-14
2.38964e-14
2.04581e-14
1.75101e-14
1.49827e-14
1.28165e-14
1.09607e-14
9.37223e-15
8.014e-15
6.85419e-15
5.86516e-15
5.02276e-15
4.30581e-15
3.69571e-15
3.17612e-15
2.73249e-15
2.35158e-15
2.0211e-15
1.72957e-15
1.46674e-15
1.22464e-15
9.99035e-16
7.90783e-16
6.06424e-16
4.57217e-16
3.56269e-16
3.14009e-16
3.32971e-16
4.03497e-16
5.02107e-16
5.93904e-16
6.39307e-16
6.0403e-16
4.69875e-16
2.43112e-16
-4.26461e-17
-3.31013e-16
-5.54743e-16
-6.52636e-16
-5.87163e-16
-3.57803e-16
-5.67385e-18
3.928e-16
7.42533e-16
9.52989e-16
9.6204e-16
7.53933e-16
3.66075e-16
-1.17813e-16
-5.86958e-16
-9.3053e-16
-1.06541e-15
-9.57468e-16
-6.30564e-16
-1.60998e-16
3.41326e-16
7.59987e-16
1.00039e-15
1.01214e-15
7.99847e-16
4.20195e-16
-3.36935e-17
-4.55994e-16
-7.53804e-16
-8.6823e-16
-7.8602e-16
-5.39547e-16
-1.95955e-16
1.61078e-16
4.51969e-16
6.19105e-16
6.37949e-16
5.19378e-16
3.03591e-16
4.78932e-17
-1.881e-16
-3.56087e-16
-4.28508e-16
-4.02092e-16
-2.95458e-16
-1.42093e-16
1.90579e-17
1.52907e-16
2.35347e-16
2.56871e-16
2.22419e-16
1.48051e-16
5.56978e-17
-3.25186e-17
-9.90683e-17
-1.33982e-16
-1.35665e-16
-1.09746e-16
-6.65805e-17
-1.81883e-17
2.45949e-17
5.41706e-17
6.71432e-17
6.42022e-17
4.91602e-17
2.75247e-17
5.00545e-18
-1.37091e-17
-2.57028e-17
-3.00503e-17
-2.75725e-17
-2.02824e-17
-1.0707e-17
-1.25606e-18
6.24101e-18
1.07709e-17
1.21497e-17
1.08627e-17
7.80612e-18
4.00723e-18
3.865e-19
-2.39976e-18
-4.02404e-18
-4.46945e-18
-3.9537e-18
-2.82544e-18
-1.4613e-18
-1.8434e-19
7.85238e-19
1.34573e-18
1.50183e-18
1.33474e-18
9.65308e-19
5.19598e-19
1.02952e-19
-2.14552e-19
-4.01629e-19
-4.60733e-19
-4.1786e-19
-3.10736e-19
-1.78162e-19
-5.22818e-20
4.55675e-20
1.05693e-19
1.28385e-19
1.2084e-19
9.36964e-20
5.79709e-20
2.28677e-20
-5.38903e-21
-2.37908e-20
-3.20968e-20
-3.20034e-20
-2.62108e-20
-1.75996e-20
-8.63764e-21
-1.05606e-21
4.23069e-21
7.02633e-21
7.65232e-21
6.71732e-21
4.90985e-21
2.8454e-21
9.78463e-22
-4.25961e-22
-1.27625e-21
-1.61158e-21
-1.54992e-21
-1.23949e-21
-8.21458e-22
-4.06945e-22
-6.75062e-23
1.63818e-22
2.84828e-22
3.1362e-22
2.78117e-22
2.07565e-22
1.26854e-22
5.36575e-23
-2.08118e-24
-3.70996e-23
-5.29487e-23
-5.39521e-23
-4.54216e-23
-3.23576e-23
-1.86866e-23
-6.97388e-24
1.51559e-24
6.54893e-24
8.5765e-24
8.39465e-24
6.87584e-24
4.7883e-24
2.703e-24
9.7086e-25
-2.52913e-25
-9.59725e-25
-1.23212e-24
-1.19409e-24
-9.73618e-25
-6.79229e-25
-3.89145e-25
-1.49931e-25
1.88733e-26
1.17318e-25
1.57217e-25
1.55442e-25
1.29039e-25
9.22883e-26
5.54171e-26
2.45252e-26
2.24036e-27
-1.1306e-26
-1.74794e-26
-1.83007e-26
-1.58401e-26
-1.18525e-26
-7.61671e-27
-3.92155e-27
-1.139e-27
6.63099e-28
1.60503e-27
1.89644e-27
1.76439e-27
1.40872e-27
9.8092e-28
5.79876e-28
2.58109e-28
3.29961e-29
-1.01037e-28
-1.61777e-28
-1.71103e-28
-1.49685e-28
-1.14174e-28
-7.62583e-29
-4.29403e-29
-1.74472e-29
-3.60872e-31
9.32007e-30
1.33271e-29
1.35256e-29
1.15595e-29
8.68769e-30
5.75486e-30
3.24131e-30
1.34879e-30
9.2577e-32
-6.17769e-31
-9.1703e-31
-9.43352e-31
-8.15126e-31
-6.21391e-31
-4.21176e-31
-2.47868e-31
-1.15622e-31
-2.58866e-32
2.70517e-32
5.19264e-32
5.77686e-32
5.23814e-32
4.17038e-32
2.97551e-32
1.8902e-32
1.02576e-32
4.08989e-33
1.71074e-34
-1.95834e-33
-2.81268e-33
-2.8579e-33
-2.46384e-33
-1.89335e-33
-1.31276e-33
-8.12119e-34
-4.27416e-34
-1.60615e-34
4.64614e-36
9.19888e-35
1.25357e-34
1.25314e-34
1.07598e-34
8.30817e-35
5.84816e-35
3.73423e-35
2.10263e-35
9.55406e-36
2.24049e-36
-1.86824e-36
-3.72797e-36
-4.15736e-36
-3.78561e-36
-3.05299e-36
-2.23859e-36
-1.49806e-36
-9.01064e-37
-4.6297e-37
-1.69025e-37
8.87748e-39
1.01671e-37
1.37321e-37
1.38283e-37
1.20998e-37
9.64936e-38
7.14685e-38
4.94592e-38
3.18866e-38
1.88883e-38
9.92486e-39
4.18287e-39
8.1944e-40
-9.09449e-40
-1.59714e-39
-1.68066e-39
-1.45927e-39
-1.12259e-39
-7.79722e-40
-4.84887e-40
-2.57686e-40
-9.79597e-41
4.13231e-42
6.17901e-41
8.79922e-41
9.37646e-41
8.76034e-41
7.55461e-41
6.15516e-41
4.79796e-41
3.60516e-41
2.62383e-41
1.85576e-41
1.27863e-41
8.60027e-42
5.65939e-42
3.65387e-42
2.32443e-42
1.46683e-42
9.27722e-43
5.96683e-43
3.97134e-43
2.77895e-43
2.06008e-43
1.61073e-43
1.31001e-43
1.08982e-43
9.14116e-44
7.65207e-44
6.35273e-44
5.21256e-44
4.22036e-44
3.36999e-44
2.65417e-44
2.06268e-44
1.58266e-44
1.19969e-44
8.98999e-45
6.66383e-45
4.88896e-45
3.552e-45
2.55686e-45
1.8244e-45
1.29089e-45
9.06112e-46
6.31173e-46
4.36443e-46
2.99672e-46
2.04371e-46
1.3847e-46
9.32291e-47
6.23878e-47
4.15035e-47
2.74526e-47
1.8058e-47
1.18144e-47
7.68899e-48
4.97858e-48
3.20755e-48
2.05649e-48
1.31224e-48
8.33448e-49
5.26947e-49
3.3168e-49
2.07861e-49
1.29708e-49
8.06003e-50
4.98784e-50
3.07416e-50
1.88717e-50
1.15396e-50
7.02907e-51
4.26535e-51
2.57863e-51
1.55318e-51
9.32133e-52
5.57415e-52
3.32159e-52
1.97242e-52
1.16724e-52
6.88405e-53
4.04642e-53
2.3706e-53
1.38428e-53
8.05717e-54
4.67467e-54
2.7036e-54
1.55874e-54
8.95902e-55
5.13349e-55
2.93256e-55
1.67022e-55
9.48436e-56
5.36983e-56
3.0314e-56
1.70635e-56
9.57737e-57
5.36029e-57
2.99162e-57
1.66498e-57
9.24073e-58
5.11458e-58
2.82311e-58
1.55407e-58
8.53187e-59
4.67156e-59
2.55111e-59
1.3895e-59
7.54835e-60
4.09e-60
2.21043e-60
1.19158e-60
6.4072e-61
3.43653e-61
1.83859e-61
9.8123e-62
5.22377e-62
2.77417e-62
1.46968e-62
7.76713e-63
4.09499e-63
2.1538e-63
1.13012e-63
5.91585e-64
3.0895e-64
1.6097e-64
8.36743e-65
4.33946e-65
2.24533e-65
1.15913e-65
5.97031e-66
3.06817e-66
1.5732e-66
8.04857e-67
4.10852e-67
2.09262e-67
1.0635e-67
5.39305e-68
2.72887e-68
1.37781e-68
6.94153e-69
3.4897e-69
1.75062e-69
8.76336e-70
4.37752e-70
2.18207e-70
1.08542e-70
5.38789e-71
2.66892e-71
1.31932e-71
6.50836e-72
3.20405e-72
1.57412e-72
7.71778e-73
3.77629e-73
1.844e-73
8.98636e-74
4.37055e-74
2.1214e-74
1.02765e-74
4.96829e-75
2.39725e-75
1.15443e-75
5.54846e-76
2.66153e-76
1.27422e-76
6.08866e-77
2.90376e-77
1.38219e-77
6.56662e-78
3.11379e-78
1.47372e-78
6.96172e-79
3.28247e-79
1.54479e-79
7.25649e-80
3.40231e-80
1.59226e-80
7.43791e-81
3.46806e-81
1.61407e-81
7.49832e-82
3.47706e-82
1.60942e-82
7.43602e-83
3.42946e-83
1.5788e-83
7.25522e-84
3.3281e-84
1.52393e-84
6.96569e-85
3.17828e-85
1.44761e-85
6.58184e-86
2.9873e-86
1.35348e-86
6.12161e-87
2.76391e-87
1.24574e-87
5.60508e-88
2.5176e-88
1.12887e-88
5.0531e-89
2.25802e-89
1.0073e-89
4.48593e-90
1.99439e-90
8.85185e-91
3.92217e-91
1.73496e-91
7.66167e-92
3.3778e-92
1.48669e-92
6.53258e-93
2.8657e-93
1.25504e-93
5.48747e-94
2.39536e-94
1.0439e-94
4.5419e-95
1.97292e-95
8.55605e-96
3.70454e-96
1.60138e-96
6.91118e-97
2.97791e-97
1.28108e-97
5.50231e-98
2.3595e-98
1.01019e-98
4.31817e-99
1.84292e-99
7.85288e-100
3.34092e-100
1.41912e-100
6.01858e-101
2.54852e-101
1.07747e-101
4.54827e-102
1.91696e-102
8.06692e-103
3.38946e-103
1.42195e-103
5.95623e-104
2.4911e-104
1.04027e-104
4.3375e-105
1.8058e-105
7.50657e-106
3.11569e-106
1.29125e-106
5.34331e-107
2.20779e-107
9.1086e-108
3.75228e-108
1.54344e-108
6.33922e-109
2.59977e-109
1.06461e-109
4.35313e-110
1.77734e-110
7.24602e-111
2.94977e-111
1.19906e-111
4.86692e-112
1.97258e-112
7.98326e-113
3.22622e-113
1.30189e-113
5.24601e-114
2.11083e-114
8.48107e-115
3.40269e-115
1.36323e-115
5.45374e-116
2.1787e-116
8.69118e-117
3.46212e-117
1.37717e-117
5.47035e-118
2.16984e-118
8.59464e-119
3.39949e-119
1.34273e-119
5.29605e-120
2.08597e-120
8.20455e-121
3.22252e-121
1.26395e-121
4.95063e-122
1.93637e-122
7.56334e-123
2.95011e-123
1.14912e-123
4.46983e-124
1.73628e-124
6.73525e-125
2.60911e-125
1.00934e-125
3.89932e-126
1.50435e-126
5.79589e-127
2.22998e-127
8.56828e-128
3.28776e-128
1.25985e-128
4.82119e-129
1.84249e-129
7.03191e-130
2.68016e-130
1.02016e-130
3.87787e-131
1.47211e-131
5.581e-132
2.11304e-132
7.98962e-133
3.01697e-133
1.13774e-133
4.28492e-134
1.61165e-134
6.05383e-135
2.27101e-135
8.50825e-136
3.18342e-136
1.18955e-136
4.43921e-137
1.65449e-137
6.15829e-138
2.28925e-138
8.49896e-139
3.15121e-139
1.16689e-139
4.31544e-140
1.59391e-140
5.87955e-141
2.16605e-141
7.96967e-142
2.92858e-142
1.07479e-142
3.93945e-143
1.44211e-143
5.27243e-144
1.9252e-144
7.02086e-145
2.55717e-145
9.30212e-146
3.37955e-146
1.22629e-146
4.44407e-147
1.60853e-147
5.81478e-148
2.09941e-148
7.57044e-149
2.72651e-149
9.80739e-150
3.52341e-150
1.26426e-150
4.53079e-151
1.62172e-151
5.79756e-152
2.07005e-152
7.38218e-153
2.6294e-153
9.35402e-154
3.32361e-154
1.17949e-154
4.18069e-155
1.48005e-155
5.23332e-156
1.84822e-156
6.51934e-157
2.29684e-157
8.08228e-158
2.84063e-158
9.97183e-159
3.49634e-159
1.22443e-159
4.28284e-160
1.49628e-160
5.22128e-161
1.8198e-161
6.33511e-162
2.20277e-162
7.65016e-163
2.65373e-163
9.19457e-164
3.18195e-164
1.09988e-164
3.79737e-165
1.30952e-165
4.51058e-166
1.55183e-166
5.33272e-167
1.8304e-167
6.27532e-168
2.14893e-168
7.35024e-169
2.51118e-169
8.56941e-170
2.92093e-170
9.94465e-171
3.38187e-171
1.14874e-171
3.89754e-172
1.32086e-172
4.47123e-173
1.51182e-173
5.10592e-174
1.72247e-174
5.80411e-175
1.95355e-175
6.56777e-176
2.20556e-176
7.3982e-177
2.4788e-177
8.29594e-178
2.77331e-178
9.26067e-179
3.08885e-179
1.02911e-179
3.42482e-180
1.13849e-180
3.78034e-181
1.25386e-181
4.15412e-182
1.37476e-182
4.54452e-183
1.50061e-183
4.94952e-184
1.63071e-184
5.36673e-185
1.76426e-185
5.79339e-186
1.90031e-186
6.22641e-187
2.03785e-187
6.66237e-188
2.17575e-188
7.0976e-189
2.3128e-189
7.5282e-190
2.44776e-190
7.9501e-191
2.57931e-191
8.35912e-192
2.70611e-192
8.75104e-193
2.82685e-193
9.12169e-194
2.94021e-194
9.467e-195
3.04493e-195
9.78308e-196
3.13983e-196
1.00663e-196
3.22379e-197
1.03133e-197
3.29584e-198
1.05213e-198
3.35511e-199
1.06877e-199
3.40091e-200
1.08105e-200
3.4327e-201
1.08884e-201
3.45011e-202
1.09205e-202
3.45296e-203
1.09064e-203
3.44124e-204
1.08465e-204
3.41514e-205
1.07416e-205
3.37502e-206
1.05932e-206
3.32142e-207
1.04032e-207
3.25503e-208
1.0174e-208
3.17668e-209
9.90843e-210
3.08734e-210
9.60978e-211
2.98808e-211
9.28155e-212
2.88005e-212
8.92753e-213
2.76448e-213
8.55163e-214
2.64263e-214
8.1579e-215
2.51578e-215
7.75038e-216
2.38522e-216
7.33311e-217
2.25219e-217
6.90999e-218
2.11791e-218
6.48478e-219
1.98354e-219
6.06101e-220
1.85016e-220
5.64198e-221
1.71876e-221
5.23069e-222
1.59024e-222
4.82981e-223
1.46541e-223
4.44172e-224
1.34495e-224
4.0684e-225
1.22944e-225
3.71154e-226
1.11935e-226
3.37244e-227
1.01505e-227
3.0521e-228
9.16804e-229
2.7512e-229
8.24775e-230
2.47012e-230
7.39042e-231
2.20897e-231
6.59599e-232
1.96762e-232
5.86372e-233
1.74573e-233
5.19221e-234
1.54277e-234
4.57953e-235
1.35805e-235
4.0233e-236
1.19076e-236
3.5208e-237
1.04e-237
3.06903e-238
9.04785e-239
2.66481e-239
7.84085e-240
2.30482e-240
6.76847e-241
1.98574e-241
5.82012e-242
1.7042e-242
4.98529e-243
1.45693e-243
4.25373e-244
1.24074e-244
3.61555e-245
1.05256e-245
3.0613e-246
8.895e-247
2.58208e-247
7.48818e-248
2.16954e-248
6.27977e-249
1.81595e-249
5.24628e-250
1.5142e-250
4.3662e-251
1.25779e-251
3.61995e-252
1.04084e-252
2.98987e-253
8.58043e-254
2.46012e-254
7.04679e-255
2.01659e-255
5.76545e-256
1.6468e-256
4.69934e-257
1.33976e-257
3.81599e-258
1.08588e-258
3.08708e-259
8.76812e-260
2.48805e-260
7.05353e-261
1.99778e-261
5.65307e-262
1.59814e-262
4.51381e-263
1.2737e-263
3.59075e-264
1.01135e-264
2.84588e-265
8.00069e-266
2.24718e-266
6.30587e-267
1.76788e-267
4.95175e-268
1.38568e-268
3.8741e-269
1.08212e-269
3.01984e-270
8.41963e-271
2.34533e-271
6.52703e-272
1.81481e-272
5.04136e-273
1.39917e-273
3.87966e-274
1.07479e-274
2.97478e-275
8.22608e-276
2.27267e-276
6.27313e-277
1.72997e-277
4.76649e-278
1.3121e-278
3.60862e-279
9.91569e-280
2.72215e-280
7.46639e-281
2.04605e-281
5.60187e-282
1.53235e-282
4.18786e-283
1.1435e-283
3.11955e-284
8.50273e-285
2.31545e-285
6.29976e-286
1.71248e-286
4.65091e-287
1.26201e-287
3.42139e-288
9.26733e-289
2.50796e-289
6.78111e-290
1.83187e-290
4.9443e-291
1.3333e-291
3.59227e-292
9.66998e-293
2.60075e-293
6.98855e-294
1.87626e-294
5.03288e-295
1.34883e-295
3.61175e-296
9.66263e-297
2.58281e-297
6.89775e-298
1.84053e-298
4.90679e-299
1.30699e-299
3.47831e-300
9.24879e-301
2.4571e-301
6.52202e-302
1.72967e-302
4.58318e-303
1.21337e-303
3.20954e-304
8.48232e-305
2.23981e-305
5.90923e-306
1.55767e-306
4.10246e-307
1.07954e-307
2.8383e-308
7.45594e-309
1.95692e-309
5.13181e-310
1.34461e-310
3.52003e-311
9.20713e-312