# vtk DataFile Version 2.0
FlowField
ASCII
DATASET STRUCTURED_GRID
DIMENSIONS 1602 1 52
POINTS 83304 float
0 0 0
0.1 0 0
0.2 0 0
0.3 0 0
0.4 0 0
0.5 0 0
0.6 0 0
0.7 0 0
0.8 0 0
0.9 0 0
1 0 0
1.1 0 0
1.2 0 0
1.3 0 0
1.4 0 0
1.5 0 0
1.6 0 0
1.7 0 0
1.8 0 0
1.9 0 0
2 0 0
2.1 0 0
2.2 0 0
2.3 0 0
2.4 0 0
2.5 0 0
2.6 0 0
2.7 0 0
2.8 0 0
2.9 0 0
3 0 0
3.1 0 0
3.2 0 0
3.3 0 0
3.4 0 0
3.5 0 0
3.6 0 0
3.7 0 0
3.8 0 0
3.9 0 0
4 0 0
4.1 0 0
4.2 0 0
4.3 0 0
4.4 0 0
4.5 0 0
4.6 0 0
4.7 0 0
4.8 0 0
4.9 0 0
5 0 0
5.1 0 0
5.2 0 0
5.3 0 0
5.4 0 0
5.5 0 0
5.6 0 0
5.7 0 0
5.8 0 0
5.9 0 0
6 0 0
6.1 0 0
6.2 0 0
6.3 0 0
6.4 0 0
6.5 0 0
6.6 0 0
6.7 0 0
6.8 0 0
6.9 0 0
7 0 0
7.1 0 0
7.2 0 0
7.3 0 0
7.4 0 0
7.5 0 0
7.6 0 0
7.7 0 0
7.8 0 0
7.9 0 0
8 0 0
8.1 0 0
8.2 0 0
8.3 0 0
8.4 0 0
8.5 0 0
8.6 0 0
8.7 0 0
8.8 0 0
8.9 0 0
9 0 0
9.1 0 0
9.2 0 0
9.3 0 0
9.4 0 0
9.5 0 0
9.6 0 0
9.7 0 0
9.8 0 0
9.9 0 0
10 0 0
10.1 0 0
10.2 0 0
10.3 0 0
10.4 0 0
10.5 0 0
10.6 0 0
10.7 0 0
10.8 0 0
10.9 0 0
11 0 0
11.1 0 0
11.2 0 0
11.3 0 0
11.4 0 0
11.5 0 0
11.6 0 0
11.7 0 0
11.8 0 0
11.9 0 0
12 0 0
12.1 0 0
12.2 0 0
12.3 0 0
12.4 0 0
12.5 0 0
12.6 0 0
12.7 0 0
12.8 0 0
12.9 0 0
13 0 0
13.1 0 0
13.2 0 0
13.3 0 0
13.4 0 0
13.5 0 0
13.6 0 0
13.7 0 0
13.8 0 0
13.9 0 0
14 0 0
14.1 0 0
14.2 0 0
14.3 0 0
14.4 0 0
14.5 0 0
14.6 0 0
14.7 0 0
14.8 0 0
14.9 0 0
15 0 0
15.1 0 0
15.2 0 0
15.3 0 0
15.4 0 0
15.5 0 0
15.6 0 0
15.7 0 0
15.8 0 0
15.9 0 0
16 0 0
16.1 0 0
16.2 0 0
16.3 0 0
16.4 0 0
16.5 0 0
16.6 0 0
16.7 0 0
16.8 0 0
16.9 0 0
17 0 0
17.1 0 0
17.2 0 0
17.3 0 0
17.4 0 0
17.5 0 0
17.6 0 0
17.7 0 0
17.8 0 0
17.9 0 0
18 0 0
18.1 0 0
18.2 0 0
18.3 0 0
18.4 0 0
18.5 0 0
18.6 0 0
18.7 0 0
18.8 0 0
18.9 0 0
19 0 0
19.1 0 0
19.2 0 0
19.3 0 0
19.4 0 0
19.5 0 0
19.6 0 0
19.7 0 0
19.8 0 0
19.9 0 0
20 0 0
20.1 0 0
20.2 0 0
20.3 0 0
20.4 0 0
20.5 0 0
20.6 0 0
20.7 0 0
20.8 0 0
20.9 0 0
21 0 0
21.1 0 0
21.2 0 0
21.3 0 0
21.4 0 0
21.5 0 0
21.6 0 0
21.7 0 0
21.8 0 0
21.9 0 0
22 0 0
22.1 0 0
22.2 0 0
22.3 0 0
22.4 0 0
22.5 0 0
22.6 0 0
22.7 0 0
22.8 0 0
22.9 0 0
23 0 0
23.1 0 0
23.2 0 0
23.3 0 0
23.4 0 0
23.5 0 0
23.6 0 0
23.7 0 0
23.8 0 0
23.9 0 0
24 0 0
24.1 0 0
24.2 0 0
24.3 0 0
24.4 0 0
24.5 0 0
24.6 0 0
24.7 0 0
24.8 0 0
24.9 0 0
25 0 0
25.1 0 0
25.2 0 0
25.3 0 0
25.4 0 0
25.5 0 0
25.6 0 0
25.7 0 0
25.8 0 0
25.9 0 0
26 0 0
26.1 0 0
26.2 0 0
26.3 0 0
26.4 0 0
26.5 0 0
26.6 0 0
26.7 0 0
26.8 0 0
26.9 0 0
27 0 0
27.1 0 0
27.2 0 0
27.3 0 0
27.4 0 0
27.5 0 0
27.6 0 0
27.7 0 0
27.8 0 0
27.9 0 0
28 0 0
28.1 0 0
28.2 0 0
28.3 0 0
28.4 0 0
28.5 0 0
28.6 0 0
28.7 0 0
28.8 0 0
28.9 0 0
29 0 0
29.1 0 0
29.2 0 0
29.3 0 0
29.4 0 0
29.5 0 0
29.6 0 0
29.7 0 0
29.8 0 0
29.9 0 0
30 0 0
30.1 0 0
30.2 0 0
30.3 0 0
30.4 0 0
30.5 0 0
30.6 0 0
30.7 0 0
30.8 0 0
30.9 0 0
31 0 0
31.1 0 0
31.2 0 0
31.3 0 0
31.4 0 0
31.5 0 0
31.6 0 0
31.7 0 0
31.8 0 0
31.9 0 0
32 0 0
32.1 0 0
32.2 0 0
32.3 0 0
32.4 0 0
32.5 0 0
32.6 0 0
32.7 0 0
32.8 0 0
32.9 0 0
33 0 0
33.1 0 0
33.2 0 0
33.3 0 0
33.4 0 0
33.5 0 0
33.6 0 0
33.7 0 0
33.8 0 0
33.9 0 0
34 0 0
34.1 0 0
34.2 0 0
34.3 0 0
34.4 0 0
34.5 0 0
34.6 0 0
34.7 0 0
34.8 0 0
34.9 0 0
35 0 0
35.1 0 0
35.2 0 0
35.3 0 0
35.4 0 0
35.5 0 0
35.6 0 0
35.7 0 0
35.8 0 0
35.9 0 0
36 0 0
36.1 0 0
36.2 0 0
36.3 0 0
36.4 0 0
36.5 0 0
36.6 0 0
36.7 0 0
36.8 0 0
36.9 0 0
37 0 0
37.1 0 0
37.2 0 0
37.3 0 0
37.4 0 0
37.5 0 0
37.6 0 0
37.7 0 0
37.8 0 0
37.9 0 0
38 0 0
38.1 0 0
38.2 0 0
38.3 0 0
38.4 0 0
38.5 0 0
38.6 0 0
38.7 0 0
38.8 0 0
38.9 0 0
39 0 0
39.1 0 0
39.2 0 0
39.3 0 0
39.4 0 0
39.5 0 0
39.6 0 0
39.7 0 0
39.8 0 0
39.9 0 0
40 0 0
40.1 0 0
40.2 0 0
40.3 0 0
40.4 0 0
40.5 0 0
40.6 0 0
40.7 0 0
40.8 0 0
40.9 0 0
41 0 0
41.1 0 0
41.2 0 0
41.3 0 0
41.4 0 0
41.5 0 0
41.6 0 0
41.7 0 0
41.8 0 0
41.9 0 0
42 0 0
42.1 0 0
42.2 0 0
42.3 0 0
42.4 0 0
42.5 0 0
42.6 0 0
42.7 0 0
42.8 0 0
42.9 0 0
43 0 0
43.1 0 0
43.2 0 0
43.3 0 0
43.4 0 0
43.5 0 0
43.6 0 0
43.7 0 0
43.8 0 0
43.9 0 0
44 0 0
44.1 0 0
44.2 0 0
44.3 0 0
44.4 0 0
44.5 0 0
44.6 0 0
44.7 0 0
44.8 0 0
44.9 0 0
45 0 0
45.1 0 0
45.2 0 0
45.3 0 0
45.4 0 0
45.5 0 0
45.6 0 0
45.7 0 0
45.8 0 0
45.9 0 0
46 0 0
46.1 0 0
46.2 0 0
46.3 0 0
46.4 0 0
46.5 0 0
46.6 0 0
46.7 0 0
46.8 0 0
46.9 0 0
47 0 0
47.1 0 0
47.2 0 0
47.3 0 0
47.4 0 0
47.5 0 0
47.6 0 0
47.7 0 0
47.8 0 0
47.9 0 0
48 0 0
48.1 0 0
48.2 0 0
48.3 0 0
48.4 0 0
48.5 0 0
48.6 0 0
48.7 0 0
48.8 0 0
48.9 0 0
49 0 0
49.1 0 0
49.2 0 0
49.3 0 0
49.4 0 0
49.5 0 0
49.6 0 0
49.7 0 0
49.8 0 0
49.9 0 0
50 0 0
50.1 0 0
50.2 0 0
50.3 0 0
50.4 0 0
50.5 0 0
50.6 0 0
50.7 0 0
50.8 0 0
50.9 0 0
51 0 0
51.1 0 0
51.2 0 0
51.3 0 0
51.4 0 0
51.5 0 0
51.6 0 0
51.7 0 0
51.8 0 0
51.9 0 0
52 0 0
52.1 0 0
52.2 0 0
52.3 0 0
52.4 0 0
52.5 0 0
52.6 0 0
52.7 0 0
52.8 0 0
52.9 0 0
53 0 0
53.1 0 0
53.2 0 0
53.3 0 0
53.4 0 0
53.5 0 0
53.6 0 0
53.7 0 0
53.8 0 0
53.9 0 0
54 0 0
54.1 0 0
54.2 0 0
54.3 0 0
54.4 0 0
54.5 0 0
54.6 0 0
54.7 0 0
54.8 0 0
54.9 0 0
55 0 0
55.1 0 0
55.2 0 0
55.3 0 0
55.4 0 0
55.5 0 0
55.6 0 0
55.7 0 0
55.8 0 0
55.9 0 0
56 0 0
56.1 0 0
56.2 0 0
56.3 0 0
56.4 0 0
56.5 0 0
56.6 0 0
56.7 0 0
56.8 0 0
56.9 0 0
57 0 0
57.1 0 0
57.2 0 0
57.3 0 0
57.4 0 0
57.5 0 0
57.6 0 0
57.7 0 0
57.8 0 0
57.9 0 0
58 0 0
58.1 0 0
58.2 0 0
58.3 0 0
58.4 0 0
58.5 0 0
58.6 0 0
58.7 0 0
58.8 0 0
58.9 0 0
59 0 0
59.1 0 0
59.2 0 0
59.3 0 0
59.4 0 0
59.5 0 0
59.6 0 0
59.7 0 0
59.8 0 0
59.9 0 0
60 0 0
60.1 0 0
60.2 0 0
60.3 0 0
60.4 0 0
60.5 0 0
60.6 0 0
60.7 0 0
60.8 0 0
60.9 0 0
61 0 0
61.1 0 0
61.2 0 0
61.3 0 0
61.4 0 0
61.5 0 0
61.6 0 0
61.7 0 0
61.8 0 0
61.9 0 0
62 0 0
62.1 0 0
62.2 0 0
62.3 0 0
62.4 0 0
62.5 0 0
62.6 0 0
62.7 0 0
62.8 0 0
62.9 0 0
63 0 0
63.1 0 0
63.2 0 0
63.3 0 0
63.4 0 0
63.5 0 0
63.6 0 0
63.7 0 0
63.8 0 0
63.9 0 0
64 0 0
64.1 0 0
64.2 0 0
64.3 0 0
64.4 0 0
64.5 0 0
64.6 0 0
64.7 0 0
64.8 0 0
64.9 0 0
65 0 0
65.1 0 0
65.2 0 0
65.3 0 0
65.4 0 0
65.5 0 0
65.6 0 0
65.7 0 0
65.8 0 0
65.9 0 0
66 0 0
66.1 0 0
66.2 0 0
66.3 0 0
66.4 0 0
66.5 0 0
66.6 0 0
66.7 0 0
66.8 0 0
66.9 0 0
67 0 0
67.1 0 0
67.2 0 0
67.3 0 0
67.4 0 0
67.5 0 0
67.6 0 0
67.7 0 0
67.8 0 0
67.9 0 0
68 0 0
68.1 0 0
68.2 0 0
68.3 0 0
68.4 0 0
68.5 0 0
68.6 0 0
68.7 0 0
68.8 0 0
68.9 0 0
69 0 0
69.1 0 0
69.2 0 0
69.3 0 0
69.4 0 0
69.5 0 0
69.6 0 0
69.7 0 0
69.8 0 0
69.9 0 0
70 0 0
70.1 0 0
70.2 0 0
70.3 0 0
70.4 0 0
70.5 0 0
70.6 0 0
70.7 0 0
70.8 0 0
70.9 0 0
71 0 0
71.1 0 0
71.2 0 0
71.3 0 0
71.4 0 0
71.5 0 0
71.6 0 0
71.7 0 0
71.8 0 0
71.9 0 0
72 0 0
72.1 0 0
72.2 0 0
72.3 0 0
72.4 0 0
72.5 0 0
72.6 0 0
72.7 0 0
72.8 0 0
72.9 0 0
73 0 0
73.1 0 0
73.2 0 0
73.3 0 0
73.4 0 0
73.5 0 0
73.6 0 0
73.7 0 0
73.8 0 0
73.9 0 0
74 0 0
74.1 0 0
74.2 0 0
74.3 0 0
74.4 0 0
74.5 0 0
74.6 0 0
74.7 0 0
74.8 0 0
74.9 0 0
75 0 0
75.1 0 0
75.2 0 0
75.3 0 0
75.4 0 0
75.5 0 0
75.6 0 0
75.7 0 0
75.8 0 0
75.9 0 0
76 0 0
76.1 0 0
76.2 0 0
76.3 0 0
76.4 0 0
76.5 0 0
76.6 0 0
76.7 0 0
76.8 0 0
76.9 0 0
77 0 0
77.1 0 0
77.2 0 0
77.3 0 0
77.4 0 0
77.5 0 0
77.6 0 0
77.7 0 0
77.8 0 0
77.9 0 0
78 0 0
78.1 0 0
78.2 0 0
78.3 0 0
78.4 0 0
78.5 0 0
78.6 0 0
78.7 0 0
78.8 0 0
78.9 0 0
79 0 0
79.1 0 0
79.2 0 0
79.3 0 0
79.4 0 0
79.5 0 0
79.6 0 0
79.7 0 0
79.8 0 0
79.9 0 0
80 0 0
80.1 0 0
80.2 0 0
80.3 0 0
80.4 0 0
80.5 0 0
80.6 0 0
80.7 0 0
80.8 0 0
80.9 0 0
81 0 0
81.1 0 0
81.2 0 0
81.3 0 0
81.4 0 0
81.5 0 0
81.6 0 0
81.7 0 0
81.8 0 0
81.9 0 0
82 0 0
82.1 0 0
82.2 0 0
82.3 0 0
82.4 0 0
82.5 0 0
82.6 0 0
82.7 0 0
82.8 0 0
82.9 0 0
83 0 0
83.1 0 0
83.2 0 0
83.3 0 0
83.4 0 0
83.5 0 0
83.6 0 0
83.7 0 0
83.8 0 0
83.9 0 0
84 0 0
84.1 0 0
84.2 0 0
84.3 0 0
84.4 0 0
84.5 0 0
84.6 0 0
84.7 0 0
84.8 0 0
84.9 0 0
85 0 0
85.1 0 0
85.2 0 0
85.3 0 0
85.4 0 0
85.5 0 0
85.6 0 0
85.7 0 0
85.8 0 0
85.9 0 0
86 0 0
86.1 0 0
86.2 0 0
86.3 0 0
86.4 0 0
86.5 0 0
86.6 0 0
86.7 0 0
86.8 0 0
86.9 0 0
87 0 0
87.1 0 0
87.2 0 0
87.3 0 0
87.4 0 0
87.5 0 0
87.6 0 0
87.7 0 0
87.8 0 0
87.9 0 0
88 0 0
88.1 0 0
88.2 0 0
88.3 0 0
88.4 0 0
88.5 0 0
88.6 0 0
88.7 0 0
88.8 0 0
88.9 0 0
89 0 0
89.1 0 0
89.2 0 0
89.3 0 0
89.4 0 0
89.5 0 0
89.6 0 0
89.7 0 0
89.8 0 0
89.9 0 0
90 0 0
90.1 0 0
90.2 0 0
90.3 0 0
90.4 0 0
90.5 0 0
90.6 0 0
90.7 0 0
90.8 0 0
90.9 0 0
91 0 0
91.1 0 0
91.2 0 0
91.3 0 0
91.4 0 0
91.5 0 0
91.6 0 0
91.7 0 0
91.8 0 0
91.9 0 0
92 0 0
92.1 0 0
92.2 0 0
92.3 0 0
92.4 0 0
92.5 0 0
92.6 0 0
92.7 0 0
92.8 0 0
92.9 0 0
93 0 0
93.1 0 0
93.2 0 0
93.3 0 0
93.4 0 0
93.5 0 0
93.6 0 0
93.7 0 0
93.8 0 0
93.9 0 0
94 0 0
94.1 0 0
94.2 0 0
94.3 0 0
94.4 0 0
94.5 0 0
94.6 0 0
94.7 0 0
94.8 0 0
94.9 0 0
95 0 0
95.1 0 0
95.2 0 0
95.3 0 0
95.4 0 0
95.5 0 0
95.6 0 0
95.7 0 0
95.8 0 0
95.9 0 0
96 0 0
96.1 0 0
96.2 0 0
96.3 0 0
96.4 0 0
96.5 0 0
96.6 0 0
96.7 0 0
96.8 0 0
96.9 0 0
97 0 0
97.1 0 0
97.2 0 0
97.3 0 0
97.4 0 0
97.5 0 0
97.6 0 0
97.7 0 0
97.8 0 0
97.9 0 0
98 0 0
98.1 0 0
98.2 0 0
98.3 0 0
98.4 0 0
98.5 0 0
98.6 0 0
98.7 0 0
98.8 0 0
98.9 0 0
99 0 0
99.1 0 0
99.2 0 0
99.3 0 0
99.4 0 0
99.5 0 0
99.6 0 0
99.7 0 0
99.8 0 0
99.9 0 0
100 0 0
100.1 0 0
100.2 0 0
100.3 0 0
100.4 0 0
100.5 0 0
100.6 0 0
100.7 0 0
100.8 0 0
100.9 0 0
101 0 0
101.1 0 0
101.2 0 0
101.3 0 0
101.4 0 0
101.5 0 0
101.6 0 0
101.7 0 0
101.8 0 0
101.9 0 0
102 0 0
102.1 0 0
102.2 0 0
102.3 0 0
102.4 0 0
102.5 0 0
102.6 0 0
102.7 0 0
102.8 0 0
102.9 0 0
103 0 0
103.1 0 0
103.2 0 0
103.3 0 0
103.4 0 0
103.5 0 0
103.6 0 0
103.7 0 0
103.8 0 0
103.9 0 0
104 0 0
104.1 0 0
104.2 0 0
104.3 0 0
104.4 0 0
104.5 0 0
104.6 0 0
104.7 0 0
104.8 0 0
104.9 0 0
105 0 0
105.1 0 0
105.2 0 0
105.3 0 0
105.4 0 0
105.5 0 0
105.6 0 0
105.7 0 0
105.8 0 0
105.9 0 0
106 0 0
106.1 0 0
106.2 0 0
106.3 0 0
106.4 0 0
106.5 0 0
106.6 0 0
106.7 0 0
106.8 0 0
106.9 0 0
107 0 0
107.1 0 0
107.2 0 0
107.3 0 0
107.4 0 0
107.5 0 0
107.6 0 0
107.7 0 0
107.8 0 0
107.9 0 0
108 0 0
108.1 0 0
108.2 0 0
108.3 0 0
108.4 0 0
108.5 0 0
108.6 0 0
108.7 0 0
108.8 0 0
108.9 0 0
109 0 0
109.1 0 0
109.2 0 0
109.3 0 0
109.4 0 0
109.5 0 0
109.6 0 0
109.7 0 0
109.8 0 0
109.9 0 0
110 0 0
110.1 0 0
110.2 0 0
110.3 0 0
110.4 0 0
110.5 0 0
110.6 0 0
110.7 0 0
110.8 0 0
110.9 0 0
111 0 0
111.1 0 0
111.2 0 0
111.3 0 0
111.4 0 0
111.5 0 0
111.6 0 0
111.7 0 0
111.8 0 0
111.9 0 0
112 0 0
[...]
POINT_DATA 83304

SCALARS pressure float 1
LOOKUP_TABLE default
0
0
0
0
0
0
0
0
0
0
0
0
0
0
0
0
0
0
0
0
0
0
0
0
0
0
0
0
0
0
0
0
0
0
0
0
0
0
0
0
0
0
0
0
0
0
0
0
0
0
0
0
0
0
0
0
0
0
0
0
0
0
0
0
0
0
0
0
0
0
0
0
0
0
0
0
0
0
0
0
0
0
0
0
0
0
0
0
0
0
0
0
0
0
0
0
0
0
0
0
0
0
0
0
0
0
0
0
0
0
0
0
0
0
0
0
0
0
0
0
0
0
0
0
0
0
0
0
0
0
0
0
0
0
0
0
0
0
0
0
0
0
0
0
0
0
0
0
0
0
0
0
0
0
0
0
0
0
0
0
0
0
0
0
0
0
0
0
0
0
0
0
0
0
0
0
0
0
0
0
0
0
0
0
0
0
0
0
0
0
0
0
0
0
0
0
0
0
0
0
0
0
0
0
0
0
0
0
0
0
0
0
0
0
0
0
0
0
0
0
0
0
0
0
0
0
0
0
0
0
0
0
0
0
0
0
0
0
0
0
0
0
0
0
0
0
0
0
0
0
0
0
0
0
0
0
0
0
0
0
0
0
0
0
0
0
0
0
0
0
0
0
0
0
0
0
0
0
0
0
0
0
0
0
0
0
0
0
0
0
0
0
0
0
0
0
0
0
0
0
0
0
0
0
0
0
0
0
0
0
0
0
0
0
0
0
0
0
0
0
0
0
0
0
0
0
0
0
0
0
0
0
0
0
0
0
0
0
0
0
0
0
0
0
0
0
0
0
0
0
0
0
0
0
0
0
0
0
0
0
0
0
0
0
0
0
0
0
0
0
0
0
0
0
0
0
0
0
0
0
0
0
0
0
0
0
0
0
0
0
0
0
0
0
0
0
0
0
0
0
0
0
0
0
0
0
0
0
0
0
0
0
0
0
0
0
0
0
0
0
0
0
0
0
0
0
0
0
0
0
0
0
0
0
0
0
0
0
0
0
0
0
0
0
0
0
0
0
0
0
0
0
0
0
0
0
0
0
0
0
0
0
0
0
0
0
0
0
0
0
0
0
0
0
0
0
0
0
0
0
0
0
0
0
0
0
0
0
0
0
0
0
0
0
0
0
0
0
0
0
0
0
0
0
0
0
0
0
0
0
0
0
0
0
0
0
0
0
0
0
0
0
0
0
0
0
0
0
0
0
0
0
0
0
0
0
0
0
0
0
0
0
0
0
0
0
0
0
0
0
0
0
0
0
0
0
0
0
0
0
0
0
0
0
0
0
0
0
0
0
0
0
0
0
0
0
0
0
0
0
0
0
0
0
0
0
0
0
0
0
0
0
0
0
0
0
0
0
0
0
0
0
0
0
0
0
0
0
0
0
0
0
0
0
0
0
0
0
0
0
0
0
0
0
0
0
0
0
0
0
0
0
0
0
0
0
0
0
0
0
0
0
0
0
0
0
0
0
0
0
0
0
0
0
0
0
0
0
0
0
0
0
0
0
0
0
0
0
0
0
0
0
0
0
0
0
0
0
0
0
0
0
0
0
0
0
0
0
0
0
0
0
0
0
0
0
0
0
0
0
0
0
0
0
0
0
0
0
0
0
0
0
0
0
0
0
0
0
0
0
0
0
0
0
0
0
0
0
0
0
0
0
0
0
0
0
0
0
0
0
0
0
0
0
0
0
0
0
0
0
0
0
0
0
0
0
0
0
0
0
0
0
0
0
0
0
0
0
0
0
0
0
0
0
0
0
0
0
0
0
0
0
0
0
0
0
0
0
0
0
0
0
0
0
0
0
0
0
0
0
0
0
0
0
0
0
0
0
0
0
0
0
0
0
0
0
0
0
0
0
0
0
0
0
0
0
0
0
0
0
0
0
0
0
0
0
0
0
0
0
0
0
0
0
0
0
0
0
0
0
0
0
0
0
0
0
0
0
0
0
0
0
0
0
0
0
0
0
0
0
0
0
0
0
0
0
0
0
0
0
0
0
0
0
0
0
0
0
0
0
0
0
0
0
0
0
0
0
0
0
0
0
0
0
0
0
0
0
0
0
0
0
0
0
0
0
0
0
0
0
0
0
0
0
0
0
0
0
0
0
0
0
0
0
0
0
0
0
0
0
0
0
0
0
0
0
0
0
0
0
0
0
0
0
0
0
0
0
0
0
0
0
0
0
0
0
0
0
0
0
0
0
0
0
0
0
0
0
0
0
0
0
0
0
0
0
0
0
0
0
0
0
0
0
0
0
0
0
0
0
0
0
0
0
0
0
0
0
0
0
0
0
0
0
0
0
0
0
0
0
0
0
0
0
0
0
0
0
0
0
0
0
0
0
0
0
0
0
0
0
0
0
0
0
0
0
0
0
0
0
0
0
0
0
0
0
0
0
0
0
0
0
0
0
0
0
0
0
0
0
0
0
0
0
0
0
0
0
0
0
0
0
0
0
0
0
0
0
0
0
0
0
0
0
0
0
0
0
0
0
0
0
0
0
0
0
0
0
0
0
0
0
0
0
0
0
0
0
0
0
0
0
0
0
0
0
0
0
0
0
0
0
0
0
0
0
0
0
0
0
0
0
0
0
0
0
0
0
0
0
0
0
0
0
0
0
0
0
0
0
0
0
0
0
0
0
0
0
0
0
0
0
0
0
0
0
0
0
0
0
0
0
0
0
0
0
0
0
0
0
0
0
0
0
0
0
0
0
0
0
0
0
0
0
0
0
0
0
0
0
0
0
0
0
0
0
0
0
0
0
0
0
0
0
0
0
0
0
0
0
0
0
0
0
0
0
0
0
0
0
0
0
0
0
0
0
0
0
0
0
0
0
0
0
0
0
0
0
0
0
0
0
0
0
0
0
0
0
0
0
0
0
0
0
0
0
0
0
0
0
0
0
0
0
0
0
0
0
0
0
0
0
0
0
0
0
0
0
0
0
0
0
0
0
0
0
0
0
0
0
0
0
0
0
0
0
0
0
0
0
0
0
0
0
0
0
0
0
0
0
0
0
0
0
0
0
0
0
0
0
0
0
0
0
0
0
0
0
0
0
0
0
0
0
0
0
0
0
0
0
0
0
0
0
0
0
0
0
0
0
0
0
0
0
0
0
0
0
0
0
0
0
0
0
0
0
0
0
0
0
0
0
0
0
0
0
0
0
0
0
0
0
0
0
0
0
0
0
0
0
0
0
0
0
0
0
0
0
0
0
0
0
0
0
0
0
0
0
0
0
0
0
0
0
0
0
0
0
0
0
0
0
0
0
0
0
0
0
0
0
0
0
0
0
0
0
0
0
0
0
0
0
0
0
0
0
0
0
0
0
0
0
0
0
0
0
0
0
0
0
0
0
0
0
0
0
0
0
0
0
0
0
0
0
0
0
0
0
0
0
0
0
0
0
0
0
0
0
0
0
0
0
0
0
0
0
0
0
0
0
0
0
0
0
0
0
0
0
0
0
0
0
0
0
0
0
0
0
0
0
0
0
0
0
0
0
0
0
0
0
0
0
0
0
0
0
0
0
0
0
0
0
0
0
0
0
0
0
0
0
0
0
0
0
0
0
0
0
0
0
0
0
0
0
0
0
0
0
0
0
0
0
0
0
0
0
0
0
0
0
0
0
0
0.0776415
0.052903
0.0436505
0.0357426
0.03048
0.0271088
0.0248019
0.023116
0.0218008
0.0207277
0.0198235
0.0190436
0.0183596
0.0177519
0.0172067
0.0167134
0.0162644
0.0158532
0.015475
0.0151254
0.0148012
0.0144994
0.0142175
0.0139534
0.0137053
0.0134716
0.0132509
0.013042
0.0128439
0.0126555
0.012476
0.0123047
0.0121408
0.0119836
0.0118325
0.0116867
0.0115457
0.0114085
0.0112744
0.0111426
0.0110124
0.0108831
0.0107544
0.0106262
0.0104995
0.0103759
0.0102583
0.0101511
0.0100602
0.00999299
0.00995782
0.00996361
0.0100185
0.0101286
0.0102959
0.010516
0.0107763
0.0110536
0.0113125
0.0115046
0.0115694
0.0114367
0.0110311
0.0102812
0.00913136
0.00755333
0.00556136
0.00322999
0.000707061
-0.00178032
-0.00394249
-0.00546604
-0.0060578
-0.0054823
-0.00358999
-0.000329949
0.00426101
0.0100708
0.0169323
0.0246485
0.0330083
0.0418
0.0508151
0.0598564
0.0687285
0.0772505
0.0852373
0.0924879
0.0988134
0.104063
0.10812
0.110884
0.112277
0.112265
0.110869
0.108167
0.104287
0.0993963
0.0936944
0.0873999
0.0807377
0.073922
0.0671416
0.0605507
0.0542657
0.0483667
0.0429029
0.0378974
0.0333543
0.0292627
0.0256021
0.0223454
0.019462
0.0169195
0.0146856
0.0127288
0.0110191
0.00952875
0.00823215
0.00710602
0.00612939
0.00528352
0.0045517
0.00391919
0.00337298
0.00290165
0.00249522
0.00214495
0.00184325
0.0015835
0.00135997
0.00116768
0.00100233
0.000860185
0.000738027
0.000633076
0.000542931
0.000465524
0.000399069
0.000342031
0.000293086
0.000251094
0.000215075
0.000184186
0.000157701
0.000134997
0.000115539
9.88646e-05
8.45792e-05
7.23428e-05
6.18635e-05
5.28908e-05
4.52096e-05
3.86354e-05
3.30098e-05
2.81968e-05
2.408e-05
2.05593e-05
1.75492e-05
1.49761e-05
1.27771e-05
1.08984e-05
9.29364e-06
7.92326e-06
6.7533e-06
5.75477e-06
4.9029e-06
4.17649e-06
3.55731e-06
3.02959e-06
2.57966e-06
2.19577e-06
1.86798e-06
1.58801e-06
1.34895e-06
1.14495e-06
9.70762e-07
8.21575e-07
6.93056e-07
5.81753e-07
4.85545e-07
4.03873e-07
3.37422e-07
2.87186e-07
2.53153e-07
2.33088e-07
2.22029e-07
2.12863e-07
1.98e-07
1.71663e-07
1.3199e-07
8.21043e-08
2.96332e-08
-1.5347e-08
-4.33379e-08
-4.84617e-08
-3.0501e-08
4.76183e-09
4.70391e-08
8.43951e-08
1.0656e-07
1.07679e-07
8.7698e-08
5.20423e-08
9.80655e-09
-2.89218e-08
-5.57663e-08
-6.60371e-08
-5.95151e-08
-3.99738e-08
-1.37317e-08
1.2245e-08
3.21229e-08
4.24193e-08
4.24377e-08
3.39426e-08
2.0296e-08
5.37171e-09
-7.43844e-09
-1.59013e-08
-1.92033e-08
-1.78236e-08
-1.31353e-08
-6.89485e-09
-7.64039e-10
4.02935e-09
6.84883e-09
7.63435e-09
6.76351e-09
4.85369e-09
2.56564e-09
4.52406e-10
-1.12571e-09
-2.02021e-09
-2.26278e-09
-2.00482e-09
-1.4502e-09
-7.9771e-10
-2.02552e-10
2.40885e-10
4.98222e-10
5.82269e-10
5.34842e-10
4.08802e-10
2.53962e-10
1.08447e-10
-4.62503e-12
-7.63187e-11
-1.08556e-10
-1.09852e-10
-9.13111e-11
-6.3586e-11
-3.50458e-11
-1.10678e-11
5.83238e-12
1.53769e-11
1.87163e-11
1.76652e-11
1.41112e-11
9.64265e-12
5.38004e-12
1.96087e-12
-3.80177e-13
-1.6899e-12
-2.17337e-12
-2.09271e-12
-1.6975e-12
-1.18633e-12
-6.93754e-13
-2.94022e-13
-1.39724e-14
1.51256e-13
2.2371e-13
2.314e-13
2.00926e-13
1.53589e-13
1.04128e-13
6.11522e-14
2.84224e-14
6.39284e-15
-6.38366e-15
-1.2163e-14
-1.32773e-14
-1.17236e-14
-8.99593e-15
-6.07836e-15
-3.52415e-15
-1.56882e-15
-2.41874e-16
5.40617e-16
9.08845e-16
9.96559e-16
9.18167e-16
7.59899e-16
5.79738e-16
4.11873e-16
2.72785e-16
1.67177e-16
9.288e-17
4.4451e-17
1.55263e-17
1.76291e-19
-6.4635e-18
-8.0273e-18
-7.01456e-18
-5.00357e-18
-2.89225e-18
-1.11675e-18
1.73509e-19
9.88306e-19
1.41133e-18
1.54817e-18
1.49814e-18
1.34185e-18
1.13817e-18
9.26106e-19
7.28734e-19
5.57579e-19
4.16452e-19
3.04514e-19
2.18476e-19
1.54071e-19
1.06951e-19
7.31644e-20
4.93741e-20
3.28961e-20
2.16546e-20
1.40924e-20
9.07165e-21
5.77917e-21
3.64508e-21
2.27709e-21
1.4094e-21
8.64581e-22
5.25798e-22
3.17093e-22
1.89677e-22
1.12563e-22
6.62864e-23
3.87417e-23
2.24769e-23
1.2947e-23
7.40538e-24
4.20659e-24
2.37344e-24
1.3303e-24
7.40785e-25
4.09883e-25
2.25372e-25
1.23156e-25
6.68919e-26
3.61153e-26
1.93842e-26
1.03438e-26
5.48817e-27
2.89548e-27
1.51913e-27
7.92644e-28
4.11342e-28
2.12324e-28
1.09017e-28
5.56819e-29
2.82934e-29
1.43032e-29
7.19423e-30
3.60047e-30
1.79301e-30
8.88535e-31
4.38186e-31
2.15057e-31
1.05047e-31
5.10696e-32
2.47123e-32
1.19029e-32
5.70692e-33
2.7238e-33
1.29417e-33
6.12159e-34
2.88279e-34
1.35162e-34
6.30957e-35
2.9327e-35
1.35729e-35
6.255e-36
2.87043e-36
1.31173e-36
5.96946e-37
2.70539e-37
1.22108e-37
5.48893e-38
2.45739e-38
1.09576e-38
4.86661e-39
2.15285e-39
9.4862e-40
4.16363e-40
1.82039e-40
7.92826e-41
3.43975e-41
1.48669e-41
6.40127e-42
2.74585e-42
1.17345e-42
4.99611e-43
2.11931e-43
8.95696e-44
3.77171e-44
1.58247e-44
6.61554e-45
2.7557e-45
1.14379e-45
4.73062e-46
1.94963e-46
8.00682e-47
3.27679e-47
1.33636e-47
5.43123e-48
2.19976e-48
8.87903e-49
3.57169e-49
1.43189e-49
5.72111e-50
2.2782e-50
9.04174e-51
3.57658e-51
1.41009e-51
5.54108e-52
2.1703e-52
8.47278e-53
3.29703e-53
1.27884e-53
4.94436e-54
1.90552e-54
7.32037e-55
2.80332e-55
1.07014e-55
4.07231e-56
1.54483e-56
5.84206e-57
2.20243e-57
8.27743e-58
3.10135e-58
1.15844e-58
4.31391e-59
1.60158e-59
5.928e-60
2.18756e-60
8.04832e-61
2.95224e-61
1.0797e-61
3.93701e-62
1.43135e-62
5.18854e-63
1.8753e-63
6.75815e-64
2.4284e-64
8.70067e-65
3.10836e-65
1.10728e-65
3.93316e-66
1.39311e-66
4.92029e-67
1.73287e-67
6.08573e-68
2.13127e-68
7.44294e-69
2.59201e-69
9.00162e-70
3.11745e-70
1.07665e-70
3.70815e-71
1.27363e-71
4.36259e-72
1.49025e-72
5.07684e-73
1.72485e-73
5.84437e-74
1.97494e-74
6.65591e-75
2.23717e-75
7.49955e-76
2.50736e-76
8.36085e-77
2.7806e-77
9.22324e-78
3.05134e-78
1.00685e-78
3.31364e-79
1.08773e-79
3.56132e-80
1.16301e-80
3.78822e-81
1.23077e-81
3.98847e-82
1.28923e-82
4.15673e-83
1.33682e-83
4.28842e-84
1.37224e-84
4.37996e-85
1.39452e-85
4.42891e-86
1.4031e-86
4.43407e-87
1.39779e-87
4.39554e-88
1.37884e-88
4.3147e-89
1.34687e-89
4.19414e-90
1.30288e-90
4.03751e-91
1.24817e-91
3.84933e-92
1.18428e-92
3.63481e-93
1.11294e-93
3.39958e-94
1.03597e-94
3.14949e-95
9.55227e-96
2.89034e-96
8.72509e-97
2.62768e-97
7.89512e-98
2.36664e-98
7.07775e-99
2.11179e-99
6.28639e-100
1.86702e-100
5.53219e-101
1.63549e-101
4.82396e-102
1.4196e-102
4.16813e-103
1.22104e-103
3.56887e-104
1.04076e-104
3.02825e-105
8.79132e-106
2.54649e-106
7.35968e-107
2.12229e-107
6.10637e-108
1.75306e-108
5.02166e-109
1.43528e-109
4.09325e-110
1.16478e-110
3.30725e-111
9.36995e-112
2.64886e-112
7.47195e-113
2.10312e-113
5.90681e-114
1.65539e-114
4.62926e-115
1.29177e-115
3.59689e-116
9.99393e-117
2.77087e-117
7.66602e-118
2.1164e-118
5.83048e-119
1.60283e-119
4.39698e-120
1.20366e-120
3.28806e-121
8.96317e-122
2.43822e-122
6.61877e-123
1.79297e-123
4.84693e-124
1.30755e-124
3.52004e-125
9.45667e-126
2.53532e-126
6.78318e-127
1.81109e-127
4.82568e-128
1.28318e-128
3.40508e-129
9.01745e-130
2.38318e-130
6.28563e-131
1.65448e-131
4.34607e-132
1.13935e-132
2.98086e-133
7.78313e-134
2.02814e-134
5.27439e-135
1.36893e-135
3.54588e-136
9.16652e-137
2.36496e-137
6.08952e-138
1.56489e-138
4.01356e-139
1.02736e-139
2.62458e-140
6.69188e-141
1.70289e-141
4.32492e-142
1.09628e-142
2.77348e-143
7.00299e-144
1.76482e-144
4.43895e-145
1.11435e-145
2.79207e-146
6.98229e-147
1.74276e-147
4.34155e-148
1.0795e-148
2.679e-149
6.63586e-150
1.64058e-150
4.04831e-151
9.97076e-152
2.45111e-152
6.01423e-153
1.47292e-153
3.60051e-154
8.78487e-155
2.13941e-155
5.20046e-156
1.26177e-156
3.0557e-157
7.38645e-158
1.7822e-158
4.29212e-159
1.03178e-159
2.47572e-160
5.92948e-161
1.41754e-161
3.38265e-162
8.0572e-163
1.91566e-163
4.54634e-164
1.077e-164
2.5467e-165
6.0111e-166
1.41626e-166
3.33081e-167
7.81937e-168
1.83237e-168
4.2862e-169
1.00081e-169
2.33269e-170
5.42729e-171
1.26048e-171
2.92222e-172
6.76267e-173
1.56226e-173
3.60261e-174
8.29304e-175
1.90565e-175
4.37126e-176
1.00094e-176
2.28793e-177
5.22055e-178
1.18913e-178
2.70386e-179
6.13735e-180
1.39066e-180
3.14561e-181
7.10289e-182
1.60108e-182
3.60278e-183
8.09306e-184
1.81484e-184
4.06272e-185
9.07921e-186
2.02551e-186
4.51103e-187
1.00294e-187
2.22603e-188
4.93227e-189
1.091e-189
2.40914e-190
5.31085e-191
1.16877e-191
2.5678e-192
5.63194e-193
1.23317e-193
2.69561e-194
5.8825e-195
1.28155e-195
2.78731e-196
6.0521e-197
1.3119e-197
2.83906e-198
6.1337e-199
1.32297e-199
2.84876e-200
6.12409e-201
1.31435e-201
2.81618e-202
6.02412e-203
1.28651e-203
2.74295e-204
5.83861e-205
1.24076e-205
2.63244e-206
5.57593e-207
1.17915e-207
2.4895e-208
5.24745e-209
1.10428e-209
2.3201e-210
4.86664e-211
1.01918e-211
2.13094e-212
4.44827e-213
9.27069e-214
1.92901e-214
4.00739e-215
8.31173e-216
1.72118e-216
3.55851e-217
7.34541e-218
1.51381e-218
3.11486e-219
6.39903e-220
1.31251e-220
2.68782e-221
5.49558e-222
1.12186e-222
2.28656e-223
4.65308e-224
9.454e-225
1.91783e-225
3.88438e-226
7.85515e-227
1.58602e-227
3.19731e-228
6.43552e-229
1.29332e-229
2.59511e-230
5.19911e-231
1.03999e-231
2.07711e-232
4.14206e-233
8.24714e-234
1.63954e-234
3.2544e-235
6.44991e-236
1.27635e-236
2.52185e-237
4.97513e-238
9.8e-239
1.92746e-239
3.78514e-240
7.42195e-241
1.45309e-241
2.8406e-242
5.54458e-243
1.08061e-243
2.10288e-244
4.08605e-245
7.92754e-246
1.53574e-246
2.97062e-247
5.73749e-248
1.10649e-248
2.13069e-249
4.09681e-250
7.86543e-251
1.50783e-251
2.88624e-252
5.51657e-253
1.05283e-253
2.00635e-254
3.81778e-255
7.2539e-256
1.37623e-256
2.60717e-257
4.93183e-258
9.31552e-259
1.75699e-259
3.30897e-260
6.22271e-261
1.16851e-261
2.19102e-262
4.10232e-263
7.6697e-264
1.43184e-264
2.66919e-265
4.9686e-266
9.23545e-267
1.71417e-267
3.17701e-268
5.87974e-269
1.0866e-269
2.00519e-270
3.69502e-271
6.79912e-272
1.2493e-272
2.29221e-273
4.19974e-274
7.68368e-275
1.40377e-275
2.56095e-276
4.6654e-277
8.48707e-278
1.54173e-278
2.79669e-279
5.06599e-280
9.16365e-281
1.65523e-281
2.98562e-282
5.37772e-283
9.67274e-284
1.73736e-284
3.11616e-285
5.58135e-286
9.98275e-287
1.78301e-287
3.18015e-288
5.66417e-289
1.00744e-289
1.78935e-290
3.17371e-291
5.62128e-292
9.94261e-293
1.75616e-293
3.09759e-294
5.45612e-295
9.59718e-296
1.68579e-296
2.9571e-297
5.17999e-298
9.06139e-299
1.58294e-299
2.76145e-300
4.81078e-301
8.36948e-302
1.45408e-302
2.52281e-303
4.37108e-304
7.56311e-305
1.30684e-305
2.25503e-306
3.88592e-307
6.68722e-308
1.14924e-308
1.97235e-309
3.38045e-310
5.78598e-311
9.88995e-312
1.68821e-312
2.87789e-313
4.89935e-314
8.32952e-315
1.41423e-315
2.39793e-316
4.06045e-317
6.86642e-318
1.1596e-318
1.95576e-319
3.29443e-320
5.54342e-321
9.28843e-322
1.4822e-322
2.47033e-323
0
0
0
0
0
0
0
0
0
0
0
0
0
0
0
0
0
0
0
0
0
0
0
0
0
0
0
0
0
0
0
0
0
0
0
0
0
0
0
0
0
0
0
0
0
0
0
0
0
0
0
0
0
0
0
0
0
0
0
0
0
0
0
0
0
0
0
0
0
0
0
0
0
0
0
0
0
0
0
0
0
0
0
0
0
0
0
0
0
0
0
0
0
0
0
0
0
0
0
0
0
0
0
0
0
0
0
0
0
0
0
0
0
0
0
0
0
0
0
0
0
0
0
0
0
0
0
0
0
0
0
0
0
0
0
0
0
0
0
0
0
0
0
0
0
0
0
0
0
0
0
0
0
0
0
0
0
0
0
0
0
0
0
0
0
0
0
0
0
0
0
0
0
0
0
0
0
0
0
0
0
0
0
0
0
0
0
0
0
0
0
0
0
0
0
0
0
0
0
0
0
0
0
0
0
0
0
0
0
0
0
0
0
0
0
0
0
0
0
0
0
0
0
0
0
0
0
0
0
0
0
0
0
0
0
0
0
0
0
0
0
0
0
0
0
0
0
0
0
0
0
0
0
0
0
0
0
0
0
0
0
0
0
0
0
0
0
0
0
0
0
0
0
0
0
0
0
0
0
0
0
0
0
0
0
0
0
0
0
0
0
0
0
0
0
0
0
0
0
0
0
0
0
0
0
0
0
0
0
0
0
0
0
0
0
0
0
0
0
0
0
0
0
0
0
0
0
0
0
0
0
0
0
0
0
0
0
0
0
0
0
0
0
0
0
0
0
0
0
0
0
0
0
0
0
0
0
0
0
0
0
0
0
0
0
0
0
0
0
0
0
0
0
0
0
0
0
0
0
0
0
0
0
0
0
0
0
0
0
0
0
0
0
0
0
0
0
0
0
0
0
0
0
0
0
0
0
0
0
0
0
0
0
0
0
0
0
0
0
0
0
0
0
0
0
0
0
0
0
0
0
0
0
0
0
0
0
0
0
0
0
0
0
0
0
0
0
0
0
0
0
0
0
0
0
0
0
0
0
0
0
0
0
0
0
0
0
0
0
0
0
0
0
0
0
0
0
0
0
0
0
0
0
0
0
0
0
0
0
0
0
0
0
0
0
0
0
0
0
0
0
0
0
0
0
0
0
0
0
0
0
0
0
0
0
0
0
0
0
0
0
0
0
0
0
0
0
0
0
0
0
0
0
0
0
0
0
0
0
0
0
0
0
0
0
0
0
0
0
0
0
0
0
0
0
0
0
0
0
0
0
0
0
0
0
0
0
0
0
0
0
0
0
0
0
0
0
0
0
0
0
0
0
0
0
0
0
0
0
0
0
0
0
0
0
0
0
0
0
0
0
0
0
0
0
0
0
0
0
0
0
0
0
0
0
0
0
0
0
0
0
0
0
0
0
0
0
0
0
0
0
0
0
0
0
0
0
0
0
0
0
0
0
0
0
0
0
0
0
0
0
0
0
0
0
0
0
0
0
0
0
0
0
0
0
0
0
0
0
0
0
0
0
0
0
0
0
0
0
0
0
0
0
0
0
0
0
0
0
0
0
0
0
0
0
0
0
0
0
0
0
0
0
0
0
0
0
0
0
0
0
0
0
0
0
0
0
0
0
0
0
0
0
0
0
0
0
0
0
0
0
0
0
0
0
0
0.062787
0.0345542
0.0299574
0.025277
0.0221391
0.0200069
0.0184495
0.0172639
0.0163155
0.0155312
0.0148652
0.0142884
0.013781
0.0133294
0.0129237
0.0125563
0.0122216
0.011915
0.0116326
0.0113716
0.0111294
0.0109038
0.010693
0.0104954
0.0103097
0.0101348
0.00996953
0.00981307
0.00966463
0.00952348
0.00938901
0.00926063
0.00913782
0.00902005
0.00890683
0.00879764
0.00869196
0.00858921
0.00848881
0.00839012
0.00829256
0.00819561
0.00809895
0.00800257
0.00790695
0.00781329
0.00772367
0.00764126
0.00757038
0.00751655
0.00748615
0.00748603
0.0075227
0.00760117
0.00772363
0.00788778
0.0080851
0.00829937
0.00850522
0.00866761
0.0087421
0.00867652
0.00841411
0.00789912
0.00708571
0.00594595
0.00448043
0.00273281
0.000801224
-0.00115313
-0.00291244
-0.00423003
-0.00486633
-0.00462224
-0.00336373
-0.0010413
0.00231686
0.0066178
0.0117182
0.0174461
0.0236147
0.0300378
0.0365339
0.0429321
0.0490766
0.0548345
0.0600875
0.0647233
0.0686514
0.0718138
0.0741777
0.075722
0.0764356
0.0763251
0.0754209
0.0737742
0.0714526
0.0685355
0.0651127
0.0612839
0.0571578
0.0528475
0.0484644
0.0441104
0.0398725
0.0358191
0.0320003
0.0284486
0.0251815
0.0222046
0.0195138
0.0170985
0.0149435
0.0130305
0.0113398
0.00985128
0.00854512
0.00740223
0.00640466
0.0055358
0.00478045
0.00412484
0.0035566
0.0030647
0.00263933
0.00227184
0.00195462
0.00168099
0.00144512
0.00124191
0.00106693
0.000916332
0.000786769
0.000675346
0.000579556
0.000497233
0.000426505
0.000365755
0.00031359
0.000268807
0.000230371
0.000197389
0.000169095
0.000144826
0.000124016
0.000106173
9.08795e-05
7.77725e-05
6.6542e-05
5.69212e-05
4.86811e-05
4.16249e-05
3.55837e-05
3.04126e-05
2.59871e-05
2.22006e-05
1.89614e-05
1.61909e-05
1.3822e-05
1.17967e-05
1.00657e-05
8.58658e-06
7.32304e-06
6.24389e-06
5.32244e-06
4.53585e-06
3.86466e-06
3.29224e-06
2.80433e-06
2.38861e-06
2.03435e-06
1.73225e-06
1.47436e-06
1.25405e-06
1.06587e-06
9.05306e-07
7.68373e-07
6.51346e-07
5.50669e-07
4.63195e-07
3.86661e-07
3.20126e-07
2.64064e-07
2.19861e-07
1.88773e-07
1.70658e-07
1.63007e-07
1.60792e-07
1.57369e-07
1.46277e-07
1.23353e-07
8.83936e-08
4.5659e-08
2.92061e-09
-3.07542e-08
-4.77931e-08
-4.45731e-08
-2.2712e-08
1.12412e-08
4.76211e-08
7.63781e-08
8.98609e-08
8.48053e-08
6.29765e-08
3.03627e-08
-4.73687e-09
-3.40865e-08
-5.16385e-08
-5.48429e-08
-4.48798e-08
-2.58893e-08
-3.54456e-09
1.65582e-08
3.02398e-08
3.55054e-08
3.26384e-08
2.37198e-08
1.18007e-08
2.91067e-12
-9.21406e-09
-1.44756e-08
-1.55675e-08
-1.32242e-08
-8.74594e-09
-3.57661e-09
1.04847e-09
4.32019e-09
5.92197e-09
5.96901e-09
4.86803e-09
3.15109e-09
1.32807e-09
-2.1429e-10
-1.25771e-09
-1.74828e-09
-1.75852e-09
-1.43418e-09
-9.41912e-10
-4.28971e-10
3.48702e-13
2.91784e-10
4.35592e-10
4.53745e-10
3.84965e-10
2.71424e-10
1.49314e-10
4.38798e-11
-3.16265e-11
-7.42427e-11
-8.8176e-11
-8.14057e-11
-6.27913e-11
-4.00769e-11
-1.88547e-11
-2.33135e-12
8.36059e-12
1.35766e-11
1.45187e-11
1.2684e-11
9.47576e-12
5.9846e-12
2.91634e-12
6.19412e-13
-8.32827e-13
-1.54302e-12
-1.69932e-12
-1.50684e-12
-1.14455e-12
-7.45012e-13
-3.90877e-13
-1.21828e-13
5.38794e-14
1.47288e-13
1.78476e-13
1.6918e-13
1.38375e-13
1.00269e-13
6.40181e-14
3.44328e-14
1.31166e-14
-3.64333e-16
-7.49248e-15
-1.00825e-14
-9.83527e-15
-8.11536e-15
-5.88611e-15
-3.7412e-15
-1.98201e-15
-7.06571e-16
1.10106e-16
5.53779e-16
7.28385e-16
7.30846e-16
6.39067e-16
5.08747e-16
3.75285e-16
2.57996e-16
1.64832e-16
9.66067e-17
5.02834e-17
2.12638e-17
4.80377e-18
-3.23795e-18
-6.10562e-18
-6.12906e-18
-4.84871e-18
-3.19348e-18
-1.65857e-18
-4.56563e-19
3.67001e-19
8.52921e-19
1.07654e-18
1.11776e-18
1.04608e-18
9.15059e-19
7.62112e-19
6.10916e-19
4.74647e-19
3.59154e-19
2.65599e-19
1.92466e-19
1.36946e-19
9.58347e-20
6.60466e-20
4.48756e-20
3.00887e-20
1.99239e-20
1.30382e-20
8.43706e-21
5.40157e-21
3.42298e-21
2.14795e-21
1.33517e-21
8.22414e-22
5.02128e-22
3.03969e-22
1.82492e-22
1.08683e-22
6.422e-23
3.76583e-23
2.19186e-23
1.26648e-23
7.26593e-24
4.13956e-24
2.34234e-24
1.31654e-24
7.35133e-25
4.07843e-25
2.24836e-25
1.23178e-25
6.70707e-26
3.63005e-26
1.95304e-26
1.04464e-26
5.55538e-27
2.93758e-27
1.54464e-27
8.0772e-28
4.20067e-28
2.17286e-28
1.11796e-28
5.72182e-29
2.91326e-29
1.47566e-29
7.43678e-30
3.72902e-30
1.86054e-30
9.23725e-31
4.56379e-31
2.24394e-31
1.09804e-31
5.34768e-32
2.59223e-32
1.25073e-32
6.0069e-33
2.87179e-33
1.36675e-33
6.47555e-34
3.05443e-34
1.43439e-34
6.70658e-35
3.12212e-35
1.4472e-35
6.67957e-36
3.06992e-36
1.405e-36
6.40342e-37
2.90633e-37
1.31368e-37
5.91371e-38
2.65135e-38
1.18392e-38
5.26549e-39
2.33254e-39
1.02921e-39
4.52348e-40
1.98038e-40
8.63663e-41
3.75204e-41
1.62379e-41
7.00069e-42
3.00685e-42
1.28662e-42
5.48493e-43
2.32959e-43
9.85793e-44
4.15623e-44
1.74595e-44
7.30781e-45
3.04774e-45
1.26652e-45
5.24443e-46
2.16394e-46
8.89732e-47