# vtk DataFile Version 2.0
FlowField
ASCII
DATASET STRUCTURED_GRID
DIMENSIONS 1602 1 52
POINTS 83304 float
0 0 0
0.1 0 0
0.2 0 0
0.3 0 0
0.4 0 0
0.5 0 0
0.6 0 0
0.7 0 0
0.8 0 0
0.9 0 0
1 0 0
1.1 0 0
1.2 0 0
1.3 0 0
1.4 0 0
1.5 0 0
1.6 0 0
1.7 0 0
1.8 0 0
1.9 0 0
2 0 0
2.1 0 0
2.2 0 0
2.3 0 0
2.4 0 0
2.5 0 0
2.6 0 0
2.7 0 0
2.8 0 0
2.9 0 0
3 0 0
3.1 0 0
3.2 0 0
3.3 0 0
3.4 0 0
3.5 0 0
3.6 0 0
3.7 0 0
3.8 0 0
3.9 0 0
4 0 0
4.1 0 0
4.2 0 0
4.3 0 0
4.4 0 0
4.5 0 0
4.6 0 0
4.7 0 0
4.8 0 0
4.9 0 0
5 0 0
5.1 0 0
5.2 0 0
5.3 0 0
5.4 0 0
5.5 0 0
5.6 0 0
5.7 0 0
5.8 0 0
5.9 0 0
6 0 0
6.1 0 0
6.2 0 0
6.3 0 0
6.4 0 0
6.5 0 0
6.6 0 0
6.7 0 0
6.8 0 0
6.9 0 0
7 0 0
7.1 0 0
7.2 0 0
7.3 0 0
7.4 0 0
7.5 0 0
7.6 0 0
7.7 0 0
7.8 0 0
7.9 0 0
8 0 0
8.1 0 0
8.2 0 0
8.3 0 0
8.4 0 0
8.5 0 0
8.6 0 0
8.7 0 0
8.8 0 0
8.9 0 0
9 0 0
9.1 0 0
9.2 0 0
9.3 0 0
9.4 0 0
9.5 0 0
9.6 0 0
9.7 0 0
9.8 0 0
9.9 0 0
10 0 0
10.1 0 0
10.2 0 0
10.3 0 0
10.4 0 0
10.5 0 0
10.6 0 0
10.7 0 0
10.8 0 0
10.9 0 0
11 0 0
11.1 0 0
11.2 0 0
11.3 0 0
11.4 0 0
11.5 0 0
11.6 0 0
11.7 0 0
11.8 0 0
11.9 0 0
12 0 0
12.1 0 0
12.2 0 0
12.3 0 0
12.4 0 0
12.5 0 0
12.6 0 0
12.7 0 0
12.8 0 0
12.9 0 0
13 0 0
13.1 0 0
13.2 0 0
13.3 0 0
13.4 0 0
13.5 0 0
13.6 0 0
13.7 0 0
13.8 0 0
13.9 0 0
14 0 0
14.1 0 0
14.2 0 0
14.3 0 0
14.4 0 0
14.5 0 0
14.6 0 0
14.7 0 0
14.8 0 0
14.9 0 0
15 0 0
15.1 0 0
15.2 0 0
15.3 0 0
15.4 0 0
15.5 0 0
15.6 0 0
15.7 0 0
15.8 0 0
15.9 0 0
16 0 0
16.1 0 0
16.2 0 0
16.3 0 0
16.4 0 0
16.5 0 0
16.6 0 0
16.7 0 0
16.8 0 0
16.9 0 0
17 0 0
17.1 0 0
17.2 0 0
17.3 0 0
17.4 0 0
17.5 0 0
17.6 0 0
17.7 0 0
17.8 0 0
17.9 0 0
18 0 0
18.1 0 0
18.2 0 0
18.3 0 0
18.4 0 0
18.5 0 0
18.6 0 0
18.7 0 0
18.8 0 0
18.9 0 0
19 0 0
19.1 0 0
19.2 0 0
19.3 0 0
19.4 0 0
19.5 0 0
19.6 0 0
19.7 0 0
19.8 0 0
19.9 0 0
20 0 0
20.1 0 0
20.2 0 0
20.3 0 0
20.4 0 0
20.5 0 0
20.6 0 0
20.7 0 0
20.8 0 0
20.9 0 0
21 0 0
21.1 0 0
21.2 0 0
21.3 0 0
21.4 0 0
21.5 0 0
21.6 0 0
21.7 0 0
21.8 0 0
21.9 0 0
22 0 0
22.1 0 0
22.2 0 0
22.3 0 0
22.4 0 0
22.5 0 0
22.6 0 0
22.7 0 0
22.8 0 0
22.9 0 0
23 0 0
23.1 0 0
23.2 0 0
23.3 0 0
23.4 0 0
23.5 0 0
23.6 0 0
23.7 0 0
23.8 0 0
23.9 0 0
24 0 0
24.1 0 0
24.2 0 0
24.3 0 0
24.4 0 0
24.5 0 0
24.6 0 0
24.7 0 0
24.8 0 0
24.9 0 0
25 0 0
25.1 0 0
25.2 0 0
25.3 0 0
25.4 0 0
25.5 0 0
25.6 0 0
25.7 0 0
25.8 0 0
25.9 0 0
26 0 0
26.1 0 0
26.2 0 0
26.3 0 0
26.4 0 0
26.5 0 0
26.6 0 0
26.7 0 0
26.8 0 0
26.9 0 0
27 0 0
27.1 0 0
27.2 0 0
27.3 0 0
27.4 0 0
27.5 0 0
27.6 0 0
27.7 0 0
27.8 0 0
27.9 0 0
28 0 0
28.1 0 0
28.2 0 0
28.3 0 0
28.4 0 0
28.5 0 0
28.6 0 0
28.7 0 0
28.8 0 0
28.9 0 0
29 0 0
29.1 0 0
29.2 0 0
29.3 0 0
29.4 0 0
29.5 0 0
29.6 0 0
29.7 0 0
29.8 0 0
29.9 0 0
30 0 0
30.1 0 0
30.2 0 0
30.3 0 0
30.4 0 0
30.5 0 0
30.6 0 0
30.7 0 0
30.8 0 0
30.9 0 0
31 0 0
31.1 0 0
31.2 0 0
31.3 0 0
31.4 0 0
31.5 0 0
31.6 0 0
31.7 0 0
31.8 0 0
31.9 0 0
32 0 0
32.1 0 0
32.2 0 0
32.3 0 0
32.4 0 0
32.5 0 0
32.6 0 0
32.7 0 0
32.8 0 0
32.9 0 0
33 0 0
33.1 0 0
33.2 0 0
33.3 0 0
33.4 0 0
33.5 0 0
33.6 0 0
33.7 0 0
33.8 0 0
33.9 0 0
34 0 0
34.1 0 0
34.2 0 0
34.3 0 0
34.4 0 0
34.5 0 0
34.6 0 0
34.7 0 0
34.8 0 0
34.9 0 0
35 0 0
35.1 0 0
35.2 0 0
35.3 0 0
35.4 0 0
35.5 0 0
35.6 0 0
35.7 0 0
35.8 0 0
35.9 0 0
36 0 0
36.1 0 0
36.2 0 0
36.3 0 0
36.4 0 0
36.5 0 0
36.6 0 0
36.7 0 0
36.8 0 0
36.9 0 0
37 0 0
37.1 0 0
37.2 0 0
37.3 0 0
37.4 0 0
37.5 0 0
37.6 0 0
37.7 0 0
37.8 0 0
37.9 0 0
38 0 0
38.1 0 0
38.2 0 0
38.3 0 0
38.4 0 0
38.5 0 0
38.6 0 0
38.7 0 0
38.8 0 0
38.9 0 0
39 0 0
39.1 0 0
39.2 0 0
39.3 0 0
39.4 0 0
39.5 0 0
39.6 0 0
39.7 0 0
39.8 0 0
39.9 0 0
40 0 0
40.1 0 0
40.2 0 0
40.3 0 0
40.4 0 0
40.5 0 0
40.6 0 0
40.7 0 0
40.8 0 0
40.9 0 0
41 0 0
41.1 0 0
41.2 0 0
41.3 0 0
41.4 0 0
41.5 0 0
41.6 0 0
41.7 0 0
41.8 0 0
41.9 0 0
42 0 0
42.1 0 0
42.2 0 0
42.3 0 0
42.4 0 0
42.5 0 0
42.6 0 0
42.7 0 0
42.8 0 0
42.9 0 0
43 0 0
43.1 0 0
43.2 0 0
43.3 0 0
43.4 0 0
43.5 0 0
43.6 0 0
43.7 0 0
43.8 0 0
43.9 0 0
44 0 0
44.1 0 0
44.2 0 0
44.3 0 0
44.4 0 0
44.5 0 0
44.6 0 0
44.7 0 0
44.8 0 0
44.9 0 0
45 0 0
45.1 0 0
45.2 0 0
45.3 0 0
45.4 0 0
45.5 0 0
45.6 0 0
45.7 0 0
45.8 0 0
45.9 0 0
46 0 0
46.1 0 0
46.2 0 0
46.3 0 0
46.4 0 0
46.5 0 0
46.6 0 0
46.7 0 0
46.8 0 0
46.9 0 0
47 0 0
47.1 0 0
47.2 0 0
47.3 0 0
47.4 0 0
47.5 0 0
47.6 0 0
47.7 0 0
47.8 0 0
47.9 0 0
48 0 0
48.1 0 0
48.2 0 0
48.3 0 0
48.4 0 0
48.5 0 0
48.6 0 0
48.7 0 0
48.8 0 0
48.9 0 0
49 0 0
49.1 0 0
49.2 0 0
49.3 0 0
49.4 0 0
49.5 0 0
49.6 0 0
49.7 0 0
49.8 0 0
49.9 0 0
50 0 0
50.1 0 0
50.2 0 0
50.3 0 0
50.4 0 0
50.5 0 0
50.6 0 0
50.7 0 0
50.8 0 0
50.9 0 0
51 0 0
51.1 0 0
51.2 0 0
51.3 0 0
51.4 0 0
51.5 0 0
51.6 0 0
51.7 0 0
51.8 0 0
51.9 0 0
52 0 0
52.1 0 0
52.2 0 0
52.3 0 0
52.4 0 0
52.5 0 0
52.6 0 0
52.7 0 0
52.8 0 0
52.9 0 0
53 0 0
53.1 0 0
53.2 0 0
53.3 0 0
53.4 0 0
53.5 0 0
53.6 0 0
53.7 0 0
53.8 0 0
53.9 0 0
54 0 0
54.1 0 0
54.2 0 0
54.3 0 0
54.4 0 0
54.5 0 0
54.6 0 0
54.7 0 0
54.8 0 0
54.9 0 0
55 0 0
55.1 0 0
55.2 0 0
55.3 0 0
55.4 0 0
55.5 0 0
55.6 0 0
55.7 0 0
55.8 0 0
55.9 0 0
56 0 0
56.1 0 0
56.2 0 0
56.3 0 0
56.4 0 0
56.5 0 0
56.6 0 0
56.7 0 0
56.8 0 0
56.9 0 0
57 0 0
57.1 0 0
57.2 0 0
57.3 0 0
57.4 0 0
57.5 0 0
57.6 0 0
57.7 0 0
57.8 0 0
57.9 0 0
58 0 0
58.1 0 0
58.2 0 0
58.3 0 0
58.4 0 0
58.5 0 0
58.6 0 0
58.7 0 0
58.8 0 0
58.9 0 0
59 0 0
59.1 0 0
59.2 0 0
59.3 0 0
59.4 0 0
59.5 0 0
59.6 0 0
59.7 0 0
59.8 0 0
59.9 0 0
60 0 0
60.1 0 0
60.2 0 0
60.3 0 0
60.4 0 0
60.5 0 0
60.6 0 0
60.7 0 0
60.8 0 0
60.9 0 0
61 0 0
61.1 0 0
61.2 0 0
61.3 0 0
61.4 0 0
61.5 0 0
61.6 0 0
61.7 0 0
61.8 0 0
61.9 0 0
62 0 0
62.1 0 0
62.2 0 0
62.3 0 0
62.4 0 0
62.5 0 0
62.6 0 0
62.7 0 0
62.8 0 0
62.9 0 0
63 0 0
63.1 0 0
63.2 0 0
63.3 0 0
63.4 0 0
63.5 0 0
63.6 0 0
63.7 0 0
63.8 0 0
63.9 0 0
64 0 0
64.1 0 0
64.2 0 0
64.3 0 0
64.4 0 0
64.5 0 0
64.6 0 0
64.7 0 0
64.8 0 0
64.9 0 0
65 0 0
65.1 0 0
65.2 0 0
65.3 0 0
65.4 0 0
65.5 0 0
65.6 0 0
65.7 0 0
65.8 0 0
65.9 0 0
66 0 0
66.1 0 0
66.2 0 0
66.3 0 0
66.4 0 0
66.5 0 0
66.6 0 0
66.7 0 0
66.8 0 0
66.9 0 0
67 0 0
67.1 0 0
67.2 0 0
67.3 0 0
67.4 0 0
67.5 0 0
67.6 0 0
67.7 0 0
67.8 0 0
67.9 0 0
68 0 0
68.1 0 0
68.2 0 0
68.3 0 0
68.4 0 0
68.5 0 0
68.6 0 0
68.7 0 0
68.8 0 0
68.9 0 0
69 0 0
69.1 0 0
69.2 0 0
69.3 0 0
69.4 0 0
69.5 0 0
69.6 0 0
69.7 0 0
69.8 0 0
69.9 0 0
70 0 0
70.1 0 0
70.2 0 0
70.3 0 0
70.4 0 0
70.5 0 0
70.6 0 0
70.7 0 0
70.8 0 0
70.9 0 0
71 0 0
71.1 0 0
71.2 0 0
71.3 0 0
71.4 0 0
71.5 0 0
71.6 0 0
71.7 0 0
71.8 0 0
71.9 0 0
72 0 0
72.1 0 0
72.2 0 0
72.3 0 0
72.4 0 0
72.5 0 0
72.6 0 0
72.7 0 0
72.8 0 0
72.9 0 0
73 0 0
73.1 0 0
73.2 0 0
73.3 0 0
73.4 0 0
73.5 0 0
73.6 0 0
73.7 0 0
73.8 0 0
73.9 0 0
74 0 0
74.1 0 0
74.2 0 0
74.3 0 0
74.4 0 0
74.5 0 0
74.6 0 0
74.7 0 0
74.8 0 0
74.9 0 0
75 0 0
75.1 0 0
75.2 0 0
75.3 0 0
75.4 0 0
75.5 0 0
75.6 0 0
75.7 0 0
75.8 0 0
75.9 0 0
76 0 0
76.1 0 0
76.2 0 0
76.3 0 0
76.4 0 0
76.5 0 0
76.6 0 0
76.7 0 0
76.8 0 0
76.9 0 0
77 0 0
77.1 0 0
77.2 0 0
77.3 0 0
77.4 0 0
77.5 0 0
77.6 0 0
77.7 0 0
77.8 0 0
77.9 0 0
78 0 0
78.1 0 0
78.2 0 0
78.3 0 0
78.4 0 0
78.5 0 0
78.6 0 0
78.7 0 0
78.8 0 0
78.9 0 0
79 0 0
79.1 0 0
79.2 0 0
79.3 0 0
79.4 0 0
79.5 0 0
79.6 0 0
79.7 0 0
79.8 0 0
79.9 0 0
80 0 0
80.1 0 0
80.2 0 0
80.3 0 0
80.4 0 0
80.5 0 0
80.6 0 0
80.7 0 0
80.8 0 0
80.9 0 0
81 0 0
81.1 0 0
81.2 0 0
81.3 0 0
81.4 0 0
81.5 0 0
81.6 0 0
81.7 0 0
81.8 0 0
81.9 0 0
82 0 0
82.1 0 0
82.2 0 0
82.3 0 0
82.4 0 0
82.5 0 0
82.6 0 0
82.7 0 0
82.8 0 0
82.9 0 0
83 0 0
83.1 0 0
83.2 0 0
83.3 0 0
83.4 0 0
83.5 0 0
83.6 0 0
83.7 0 0
83.8 0 0
83.9 0 0
84 0 0
84.1 0 0
84.2 0 0
84.3 0 0
84.4 0 0
84.5 0 0
84.6 0 0
84.7 0 0
84.8 0 0
84.9 0 0
85 0 0
85.1 0 0
85.2 0 0
85.3 0 0
85.4 0 0
85.5 0 0
85.6 0 0
85.7 0 0
85.8 0 0
85.9 0 0
86 0 0
86.1 0 0
86.2 0 0
86.3 0 0
86.4 0 0
86.5 0 0
86.6 0 0
86.7 0 0
86.8 0 0
86.9 0 0
87 0 0
87.1 0 0
87.2 0 0
87.3 0 0
87.4 0 0
87.5 0 0
87.6 0 0
87.7 0 0
87.8 0 0
87.9 0 0
88 0 0
88.1 0 0
88.2 0 0
88.3 0 0
88.4 0 0
88.5 0 0
88.6 0 0
88.7 0 0
88.8 0 0
88.9 0 0
89 0 0
89.1 0 0
89.2 0 0
89.3 0 0
89.4 0 0
89.5 0 0
89.6 0 0
89.7 0 0
89.8 0 0
89.9 0 0
90 0 0
90.1 0 0
90.2 0 0
90.3 0 0
90.4 0 0
90.5 0 0
90.6 0 0
90.7 0 0
90.8 0 0
90.9 0 0
91 0 0
91.1 0 0
91.2 0 0
91.3 0 0
91.4 0 0
91.5 0 0
91.6 0 0
91.7 0 0
91.8 0 0
91.9 0 0
92 0 0
92.1 0 0
92.2 0 0
92.3 0 0
92.4 0 0
92.5 0 0
92.6 0 0
92.7 0 0
92.8 0 0
92.9 0 0
93 0 0
93.1 0 0
93.2 0 0
93.3 0 0
93.4 0 0
93.5 0 0
93.6 0 0
93.7 0 0
93.8 0 0
93.9 0 0
94 0 0
94.1 0 0
94.2 0 0
94.3 0 0
94.4 0 0
94.5 0 0
94.6 0 0
94.7 0 0
94.8 0 0
94.9 0 0
95 0 0
95.1 0 0
95.2 0 0
95.3 0 0
95.4 0 0
95.5 0 0
95.6 0 0
95.7 0 0
95.8 0 0
95.9 0 0
96 0 0
96.1 0 0
96.2 0 0
96.3 0 0
96.4 0 0
96.5 0 0
96.6 0 0
96.7 0 0
96.8 0 0
96.9 0 0
97 0 0
97.1 0 0
97.2 0 0
97.3 0 0
97.4 0 0
97.5 0 0
97.6 0 0
97.7 0 0
97.8 0 0
97.9 0 0
98 0 0
98.1 0 0
98.2 0 0
98.3 0 0
98.4 0 0
98.5 0 0
98.6 0 0
98.7 0 0
98.8 0 0
98.9 0 0
99 0 0
99.1 0 0
99.2 0 0
99.3 0 0
99.4 0 0
99.5 0 0
99.6 0 0
99.7 0 0
99.8 0 0
99.9 0 0
100 0 0
100.1 0 0
100.2 0 0
100.3 0 0
100.4 0 0
100.5 0 0
100.6 0 0
100.7 0 0
100.8 0 0
100.9 0 0
101 0 0
101.1 0 0
101.2 0 0
101.3 0 0
101.4 0 0
101.5 0 0
101.6 0 0
101.7 0 0
101.8 0 0
101.9 0 0
102 0 0
102.1 0 0
102.2 0 0
102.3 0 0
102.4 0 0
102.5 0 0
102.6 0 0
102.7 0 0
102.8 0 0
102.9 0 0
103 0 0
103.1 0 0
103.2 0 0
103.3 0 0
103.4 0 0
103.5 0 0
103.6 0 0
103.7 0 0
103.8 0 0
103.9 0 0
104 0 0
104.1 0 0
104.2 0 0
104.3 0 0
104.4 0 0
104.5 0 0
104.6 0 0
104.7 0 0
104.8 0 0
104.9 0 0
105 0 0
105.1 0 0
105.2 0 0
105.3 0 0
105.4 0 0
105.5 0 0
105.6 0 0
105.7 0 0
105.8 0 0
105.9 0 0
106 0 0
106.1 0 0
106.2 0 0
106.3 0 0
106.4 0 0
106.5 0 0
106.6 0 0
106.7 0 0
106.8 0 0
106.9 0 0
107 0 0
107.1 0 0
107.2 0 0
107.3 0 0
107.4 0 0
107.5 0 0
107.6 0 0
107.7 0 0
107.8 0 0
107.9 0 0
108 0 0
108.1 0 0
108.2 0 0
108.3 0 0
108.4 0 0
108.5 0 0
108.6 0 0
108.7 0 0
108.8 0 0
108.9 0 0
109 0 0
109.1 0 0
109.2 0 0
109.3 0 0
109.4 0 0
109.5 0 0
109.6 0 0
109.7 0 0
109.8 0 0
109.9 0 0
110 0 0
110.1 0 0
110.2 0 0
110.3 0 0
110.4 0 0
110.5 0 0
110.6 0 0
110.7 0 0
110.8 0 0
110.9 0 0
111 0 0
111.1 0 0
111.2 0 0
111.3 0 0
111.4 0 0
111.5 0 0
111.6 0 0
111.7 0 0
111.8 0 0
111.9 0 0
112 0 0
[...]
POINT_DATA 83304

SCALARS pressure float 1
LOOKUP_TABLE default
0
0
0
0
0
0
0
0
0
0
0
0
0
0
0
0
0
0
0
0
0
0
0
0
0
0
0
0
0
0
0
0
0
0
0
0
0
0
0
0
0
0
0
0
0
0
0
0
0
0
0
0
0
0
0
0
0
0
0
0
0
0
0
0
0
0
0
0
0
0
0
0
0
0
0
0
0
0
0
0
0
0
0
0
0
0
0
0
0
0
0
0
0
0
0
0
0
0
0
0
0
0
0
0
0
0
0
0
0
0
0
0
0
0
0
0
0
0
0
0
0
0
0
0
0
0
0
0
0
0
0
0
0
0
0
0
0
0
0
0
0
0
0
0
0
0
0
0
0
0
0
0
0
0
0
0
0
0
0
0
0
0
0
0
0
0
0
0
0
0
0
0
0
0
0
0
0
0
0
0
0
0
0
0
0
0
0
0
0
0
0
0
0
0
0
0
0
0
0
0
0
0
0
0
0
0
0
0
0
0
0
0
0
0
0
0
0
0
0
0
0
0
0
0
0
0
0
0
0
0
0
0
0
0
0
0
0
0
0
0
0
0
0
0
0
0
0
0
0
0
0
0
0
0
0
0
0
0
0
0
0
0
0
0
0
0
0
0
0
0
0
0
0
0
0
0
0
0
0
0
0
0
0
0
0
0
0
0
0
0
0
0
0
0
0
0
0
0
0
0
0
0
0
0
0
0
0
0
0
0
0
0
0
0
0
0
0
0
0
0
0
0
0
0
0
0
0
0
0
0
0
0
0
0
0
0
0
0
0
0
0
0
0
0
0
0
0
0
0
0
0
0
0
0
0
0
0
0
0
0
0
0
0
0
0
0
0
0
0
0
0
0
0
0
0
0
0
0
0
0
0
0
0
0
0
0
0
0
0
0
0
0
0
0
0
0
0
0
0
0
0
0
0
0
0
0
0
0
0
0
0
0
0
0
0
0
0
0
0
0
0
0
0
0
0
0
0
0
0
0
0
0
0
0
0
0
0
0
0
0
0
0
0
0
0
0
0
0
0
0
0
0
0
0
0
0
0
0
0
0
0
0
0
0
0
0
0
0
0
0
0
0
0
0
0
0
0
0
0
0
0
0
0
0
0
0
0
0
0
0
0
0
0
0
0
0
0
0
0
0
0
0
0
0
0
0
0
0
0
0
0
0
0
0
0
0
0
0
0
0
0
0
0
0
0
0
0
0
0
0
0
0
0
0
0
0
0
0
0
0
0
0
0
0
0
0
0
0
0
0
0
0
0
0
0
0
0
0
0
0
0
0
0
0
0
0
0
0
0
0
0
0
0
0
0
0
0
0
0
0
0
0
0
0
0
0
0
0
0
0
0
0
0
0
0
0
0
0
0
0
0
0
0
0
0
0
0
0
0
0
0
0
0
0
0
0
0
0
0
0
0
0
0
0
0
0
0
0
0
0
0
0
0
0
0
0
0
0
0
0
0
0
0
0
0
0
0
0
0
0
0
0
0
0
0
0
0
0
0
0
0
0
0
0
0
0
0
0
0
0
0
0
0
0
0
0
0
0
0
0
0
0
0
0
0
0
0
0
0
0
0
0
0
0
0
0
0
0
0
0
0
0
0
0
0
0
0
0
0
0
0
0
0
0
0
0
0
0
0
0
0
0
0
0
0
0
0
0
0
0
0
0
0
0
0
0
0
0
0
0
0
0
0
0
0
0
0
0
0
0
0
0
0
0
0
0
0
0
0
0
0
0
0
0
0
0
0
0
0
0
0
0
0
0
0
0
0
0
0
0
0
0
0
0
0
0
0
0
0
0
0
0
0
0
0
0
0
0
0
0
0
0
0
0
0
0
0
0
0
0
0
0
0
0
0
0
0
0
0
0
0
0
0
0
0
0
0
0
0
0
0
0
0
0
0
0
0
0
0
0
0
0
0
0
0
0
0
0
0
0
0
0
0
0
0
0
0
0
0
0
0
0
0
0
0
0
0
0
0
0
0
0
0
0
0
0
0
0
0
0
0
0
0
0
0
0
0
0
0
0
0
0
0
0
0
0
0
0
0
0
0
0
0
0
0
0
0
0
0
0
0
0
0
0
0
0
0
0
0
0
0
0
0
0
0
0
0
0
0
0
0
0
0
0
0
0
0
0
0
0
0
0
0
0
0
0
0
0
0
0
0
0
0
0
0
0
0
0
0
0
0
0
0
0
0
0
0
0
0
0
0
0
0
0
0
0
0
0
0
0
0
0
0
0
0
0
0
0
0
0
0
0
0
0
0
0
0
0
0
0
0
0
0
0
0
0
0
0
0
0
0
0
0
0
0
0
0
0
0
0
0
0
0
0
0
0
0
0
0
0
0
0
0
0
0
0
0
0
0
0
0
0
0
0
0
0
0
0
0
0
0
0
0
0
0
0
0
0
0
0
0
0
0
0
0
0
0
0
0
0
0
0
0
0
0
0
0
0
0
0
0
0
0
0
0
0
0
0
0
0
0
0
0
0
0
0
0
0
0
0
0
0
0
0
0
0
0
0
0
0
0
0
0
0
0
0
0
0
0
0
0
0
0
0
0
0
0
0
0
0
0
0
0
0
0
0
0
0
0
0
0
0
0
0
0
0
0
0
0
0
0
0
0
0
0
0
0
0
0
0
0
0
0
0
0
0
0
0
0
0
0
0
0
0
0
0
0
0
0
0
0
0
0
0
0
0
0
0
0
0
0
0
0
0
0
0
0
0
0
0
0
0
0
0
0
0
0
0
0
0
0
0
0
0
0
0
0
0
0
0
0
0
0
0
0
0
0
0
0
0
0
0
0
0
0
0
0
0
0
0
0
0
0
0
0
0
0
0
0
0
0
0
0
0
0
0
0
0
0
0
0
0
0
0
0
0
0
0
0
0
0
0
0
0
0
0
0
0
0
0
0
0
0
0
0
0
0
0
0
0
0
0
0
0
0
0
0
0
0
0
0
0
0
0
0
0
0
0
0
0
0
0
0
0
0
0
0
0
0
0
0
0
0
0
0
0
0
0
0
0
0
0
0
0
0
0
0
0
0
0
0
0
0
0
0
0
0
0
0
0
0
0
0
0
0
0
0
0
0
0
0
0
0
0
0
0
0
0
0
0
0
0
0
0
0
0
0
0
0
0
0
0
0
0
0
0
0
0
0
0
0
0
0
0
0
0
0
0
0
0
0
0
0
0
0
0
0
0
0
0
0
0
0
0
0
0
0
0
0
0
0
0
0
0
0
0
0
0
0
0
0
0
0
0
0
0
0
0
0
0
0
0
0
0
0
0
0
0
0
0
0
0
0
0
0
0
0
0
0
0
0
0
0
0
0
0
0
0
0
0
0
0
0
0
0
0
0
0
0
0
0
0
0
0
0
0
0
0
0
0
0
0
0
0
0
0
0
0
0
0
0
0
0
0
0
0
0
0
0
0
0
0
0
0
0
0
0
0
0
0
0
0
0
0
0
0
0
0
0
0
0
0
0
0
0
0
0
0
0
0
0
0
0
0
0
0
0
0
0
0
0
0
0
0
0
0
0
0
0
0
0
0
0
0
0
0
0
0
0
0
0
0
0
0
0
0
0
0
0
0
0
0
0
0
0
0
0
0
0
0
0
0
0
0
0
0
0
0
0
0
0
0
0
0.0776415
0.052903
0.0436505
0.0357426
0.03048
0.0271088
0.0248019
0.0231159
0.0218007
0.0207277
0.0198234
0.0190435
0.0183595
0.0177518
0.0172064
0.0167132
0.016264
0.0158527
0.0154743
0.0151246
0.0148001
0.0144979
0.0142155
0.0139507
0.0137016
0.0134666
0.0132441
0.0130328
0.0128316
0.0126395
0.0124557
0.0122798
0.0121119
0.0119525
0.0118032
0.0116662
0.0115448
0.0114434
0.0113672
0.0113217
0.0113119
0.0113409
0.0114087
0.0115096
0.0116308
0.0117495
0.0118321
0.0118328
0.0116948
0.0113531
0.0107406
0.0097969
0.00848172
0.00678968
0.00476658
0.00252439
0.000246507
-0.00181624
-0.00336919
-0.00411555
-0.00379632
-0.00222702
0.000681335
0.00492463
0.0104144
0.0169971
0.0244825
0.0326608
0.0413197
0.0502507
0.0592564
0.0681546
0.0767674
0.0849219
0.0924357
0.0991357
0.104877
0.109533
0.112974
0.11508
0.115771
0.115027
0.112891
0.109465
0.104894
0.0993655
0.0930953
0.0863183
0.0792696
0.0721661
0.0651917
0.0584903
0.0521647
0.0462813
0.0408756
0.0359592
0.0315258
0.0275567
0.0240249
0.0208984
0.018143
0.0157238
0.0136066
0.011759
0.0101504
0.00875298
0.00754111
0.00649182
0.00558454
0.00480098
0.00412499
0.00354233
0.00304052
0.00260866
0.00223723
0.00191797
0.00164369
0.00140816
0.00120599
0.00103254
0.000883767
0.000756215
0.000646891
0.000553219
0.000472981
0.000404271
0.00034545
0.000295108
0.000252034
0.000215189
0.00018368
0.000156742
0.000133719
0.000114046
9.7242e-05
8.28911e-05
7.06383e-05
6.01796e-05
5.12548e-05
4.36415e-05
3.71489e-05
3.16125e-05
2.68905e-05
2.28612e-05
1.9422e-05
1.64872e-05
1.39857e-05
1.18569e-05
1.00474e-05
8.50882e-06
7.19838e-06
6.08181e-06
5.13573e-06
4.34744e-06
3.71011e-06
3.21427e-06
2.83879e-06
2.54624e-06
2.28601e-06
2.00589e-06
1.66857e-06
1.26644e-06
8.28218e-07
4.12946e-07
9.21721e-08
-7.42332e-08
-6.02199e-08
1.14457e-07
3.87039e-07
6.68742e-07
8.70284e-07
9.27496e-07
8.18768e-07
5.69175e-07
2.40727e-07
-8.73125e-08
-3.41365e-07
-4.72677e-07
-4.67545e-07
-3.46782e-07
-1.55994e-07
4.93491e-08
2.19168e-07
3.20176e-07
3.41055e-07
2.91167e-07
1.94344e-07
8.03566e-08
-2.33092e-08
-9.73447e-08
-1.33238e-07
-1.32721e-07
-1.04943e-07
-6.26007e-08
-1.82284e-08
1.85127e-08
4.21747e-08
5.15482e-08
4.87343e-08
3.77467e-08
2.31013e-08
8.71411e-09
-2.73627e-09
-9.98348e-09
-1.29913e-08
-1.25687e-08
-9.93105e-09
-6.32113e-09
-2.75079e-09
1.22082e-10
2.00175e-09
2.88618e-09
2.96333e-09
2.50635e-09
1.78969e-09
1.03573e-09
3.91499e-10
-7.10951e-11
-3.40412e-10
-4.44229e-10
-4.29329e-10
-3.45416e-10
-2.34797e-10
-1.27581e-10
-4.10927e-11
1.80806e-11
5.08772e-11
6.24822e-11
5.96288e-11
4.87469e-11
3.49494e-11
2.16888e-11
1.08615e-11
3.14628e-12
-1.58644e-12
-3.90067e-12
-4.50839e-12
-4.08394e-12
-3.16745e-12
-2.13476e-12
-1.2091e-12
-4.93544e-13
-9.11661e-15
2.70786e-13
3.93855e-13
4.11154e-13
3.67141e-13
2.95492e-13
2.18693e-13
1.49684e-13
9.42836e-14
5.36305e-14
2.62112e-14
9.34452e-15
1.38458e-16
-3.98006e-15
-5.04081e-15
-4.49812e-15
-3.30181e-15
-2.00946e-15
-9.0193e-16
-8.26106e-17
4.46704e-16
7.33261e-16
8.40326e-16
8.28781e-16
7.48659e-16
6.36773e-16
5.17648e-16
4.05883e-16
3.08824e-16
2.28992e-16
1.65994e-16
1.17916e-16
8.22396e-17
5.63997e-17
3.80805e-17
2.53403e-17
1.66337e-17
1.07786e-17
6.89944e-18
4.36514e-18
2.73107e-18
1.6905e-18
1.03567e-18
6.28216e-19
3.77417e-19
2.24641e-19
1.32505e-19
7.74749e-20
4.49134e-20
2.58209e-20
1.47243e-20
8.33006e-21
4.67613e-21
2.60508e-21
1.44052e-21
7.90757e-22
4.30976e-22
2.33241e-22
1.25358e-22
6.69187e-23
3.54842e-23
1.86924e-23
9.78309e-24
5.08761e-24
2.62916e-24
1.35028e-24
6.89241e-25
3.49699e-25
1.76371e-25
8.84303e-26
4.40808e-26
2.18474e-26
1.07668e-26
5.27632e-27
2.57137e-27
1.24627e-27
6.00762e-28
2.88042e-28
1.37372e-28
6.51708e-29
3.07569e-29
1.44407e-29
6.74547e-30
3.13498e-30
1.44969e-30
6.67045e-31
3.05416e-31
1.39157e-31
6.30976e-32
2.84729e-32
1.27874e-32
5.71579e-33
2.54293e-33
1.12608e-33
4.96366e-34
2.17792e-34
9.51281e-35
4.13632e-35
1.7905e-35
7.71619e-36
3.31065e-36
1.41423e-36
6.01498e-37
2.54725e-37
1.0741e-37
4.50986e-38
1.88557e-38
7.85041e-39
3.25482e-39
1.34387e-39
5.52576e-40
2.2628e-40
9.22843e-41
3.74844e-41
1.51643e-41
6.11021e-42
2.45223e-42
9.80273e-43
3.90323e-43
1.54811e-43
6.11633e-44
2.40713e-44
9.43711e-45
3.68567e-45
1.43398e-45
5.55807e-46
2.14621e-46
8.25647e-47
3.16446e-47
1.20836e-47
4.59718e-48
1.74259e-48
6.58135e-49
2.47662e-49
9.28612e-50
3.46936e-50
1.29155e-50
4.79101e-51
1.77095e-51
6.5231e-52
2.3943e-52
8.75766e-53
3.19218e-53
1.15954e-53
4.19748e-54
1.51427e-54
5.44422e-55
1.95071e-55
6.96599e-56
2.47919e-56
8.79392e-57
3.10889e-57
1.09543e-57
3.84706e-58
1.34661e-58
4.69819e-59
1.63381e-59
5.66315e-60
1.95663e-60
6.73841e-61
2.31319e-61
7.91547e-62
2.69996e-62
9.18035e-63
3.11163e-63
1.05136e-63
3.54119e-64
1.18903e-64
3.97999e-65
1.32809e-65
4.41804e-66
1.4652e-66
4.84431e-67
1.59677e-67
5.24722e-68
1.7191e-68
5.61515e-69
1.82858e-69
5.93699e-70
1.92185e-70
6.20272e-71
1.99598e-71
6.40391e-72
2.0486e-72
6.53422e-73
2.07807e-73
6.58964e-74
2.08354e-74
6.56878e-75
2.06498e-75
6.47287e-76
2.02318e-76
6.3057e-77
1.95972e-77
6.07331e-78
1.87684e-78
5.78371e-79
1.77732e-79
5.4464e-80
1.66434e-80
5.07183e-81
1.54129e-81
4.67093e-82
1.41165e-82
4.25458e-83
1.27879e-83
3.83313e-84
1.14585e-84
3.41605e-85
1.01566e-85
3.0116e-86
8.90598e-87
2.62665e-87
7.72613e-88
2.26655e-88
6.63155e-89
1.93515e-89
5.63208e-90
1.63486e-90
4.73314e-91
1.36673e-91
3.93627e-92
1.13072e-92
3.23966e-93
9.25806e-94
2.63888e-94
7.50245e-95
2.12751e-95
6.0177e-96
1.69778e-96
4.77778e-97
1.34113e-97
3.75504e-98
1.04873e-98
2.9216e-99
8.11872e-100
2.25044e-100
6.22249e-101
1.71625e-101
4.7219e-102
1.29592e-102
3.54787e-103
9.68921e-104
2.63962e-104
7.1735e-105
1.94473e-105
5.25931e-106
1.41887e-106
3.81859e-107
1.02521e-107
2.74585e-108
7.33659e-109
1.95555e-109
5.20002e-110
1.37944e-110
3.65063e-111
9.63828e-112
2.53865e-112
6.6708e-113
1.74875e-113
4.5736e-114
1.19335e-114
3.10643e-115
8.06752e-116
2.09029e-116
5.40336e-117
1.39352e-117
3.58557e-118
9.20453e-119
2.35746e-119
6.02406e-120
1.53582e-120
3.90657e-121
9.9143e-122
2.51038e-122
6.34208e-123
1.5986e-123
4.02037e-124
1.00882e-124
2.52571e-125
6.30926e-126
1.57254e-126
3.91069e-127
9.70369e-128
2.40245e-128
5.93483e-129
1.46285e-129
3.59777e-130
8.82893e-131
2.16186e-131
5.28194e-132
1.28768e-132
3.13238e-133
7.60314e-134
1.84148e-134
4.45038e-135
1.07322e-135
2.58248e-136
6.20085e-137
1.4857e-137
3.55203e-138
8.47405e-139
2.01733e-139
4.79221e-140
1.13598e-140
2.68708e-141
6.34263e-142
1.49396e-142
3.51149e-143
8.23623e-144
1.92775e-144
4.5026e-145
1.04946e-145
2.44095e-146
5.66559e-147
1.31229e-147
3.03325e-148
6.99662e-149
1.61053e-149
3.69958e-150
8.48087e-151
1.94015e-151
4.42933e-152
1.00914e-152
2.29443e-153
5.20611e-154
1.17887e-154
2.66402e-155
6.00795e-156
1.35218e-156
3.03716e-157
6.80804e-158
1.52301e-158
3.40025e-159
7.57614e-160
1.68467e-160
3.73865e-161
8.28034e-162
1.83028e-162
4.03759e-163
8.88929e-164
1.95322e-164
4.28331e-165
9.37453e-166
2.04769e-166
4.46403e-167
9.71266e-168
2.10911e-168
4.57099e-169
9.88726e-170
2.1345e-170
4.59908e-171
9.89019e-172
2.12274e-172
4.54727e-173
9.72224e-174
2.07465e-174
4.41866e-175
9.39295e-176
1.99288e-176
4.22018e-177
8.91973e-178
1.88168e-178
3.96198e-179
8.32637e-180
1.74653e-180
3.65658e-181
7.64106e-182
1.59373e-182
3.31785e-183
6.8942e-184
1.42987e-184
2.96003e-185
6.11625e-186
1.26143e-186
2.59677e-187
5.33575e-188
1.09434e-188
2.24029e-189
4.57775e-190
9.33682e-191
1.90084e-191
3.86271e-192
7.83505e-193
1.58633e-193
3.20592e-194
6.4672e-195
1.30223e-195
2.61739e-196
5.2512e-197
1.05162e-197
2.10221e-198
4.19474e-199
8.35505e-200
1.66115e-200
3.29677e-201
6.53111e-202
1.29153e-202
2.54945e-203
5.02354e-204
9.88093e-205
1.94004e-205
3.80235e-206
7.43909e-207
1.45284e-207
2.83234e-208
5.51195e-209
1.07077e-209
2.07647e-210
4.01964e-211
7.76759e-212
1.49838e-212
2.88535e-213
5.54644e-214
1.06432e-214
2.03879e-215
3.89866e-216
7.44225e-217
1.4182e-217
2.69787e-218
5.12332e-219
9.71251e-220
1.83807e-220
3.47252e-221
6.54909e-222
1.23302e-222
2.31748e-223
4.34828e-224
8.14474e-225
1.52298e-225
2.84298e-226
5.298e-227
9.85628e-228
1.83053e-228
3.39395e-229
6.28203e-230
1.16081e-230
2.14135e-231
3.94352e-232
7.25021e-233
1.33072e-233
2.43836e-234
4.46045e-235
8.14583e-236
1.48514e-236
2.70317e-237
4.912e-238
8.91089e-239
1.61385e-239
2.91801e-240
5.26733e-241
9.49241e-242
1.70784e-242
3.06762e-243
5.50099e-244
9.84845e-245
1.76028e-245
3.14112e-246
5.596e-247
9.95315e-248
1.7674e-248
3.1333e-249
5.54579e-250
9.79985e-251
1.7289e-251
3.04522e-252
5.35506e-253
9.40174e-254
1.64798e-254
2.88401e-255
5.03897e-256
8.79002e-257
1.53088e-257
2.66194e-258
4.62125e-259
8.0099e-260
1.38612e-260
2.39489e-261
4.13121e-262
7.11509e-263
1.22347e-263
2.10048e-264
3.60046e-265
6.16183e-266
1.05288e-266
1.79622e-267
3.05956e-268
5.20327e-269
8.8351e-270
1.49784e-270
2.53537e-271
4.28487e-272
7.23029e-273
1.21814e-273
2.04909e-274
3.44153e-275
5.77121e-276
9.66294e-277
1.61539e-277
2.69635e-278
4.49369e-279
7.47757e-280
1.24236e-280
2.06095e-281
3.41366e-282
5.64555e-283
9.32238e-284
1.53703e-284
2.53031e-285
4.15913e-286
6.82604e-287
1.1186e-287
1.83028e-288
2.99022e-289
4.87786e-290
7.94507e-291
1.29214e-291
2.09828e-292
3.40222e-293
5.50817e-294
8.90426e-295
1.43726e-295
2.31644e-296
3.72782e-297
5.99017e-298
9.61109e-299
1.53978e-299
2.46317e-300
3.93445e-301
6.27519e-302
9.99364e-303
1.58919e-303
2.52339e-304
4.00082e-305
6.3339e-306
1.00127e-306
1.58049e-307
2.49109e-308
3.92057e-309
6.16127e-310
9.66838e-311
1.51495e-311
2.37033e-312
3.70325e-313
5.77727e-314
8.99969e-315
1.39991e-315
2.1744e-316
3.37246e-317
5.22303e-318
8.07738e-319
1.24737e-319
1.9234e-320
2.95945e-321
4.496e-322
6.42285e-323
4.94066e-324
0
0
0
0
0
0
0
0
0
0
0
0
0
0
0
0
0
0
0
0
0
0
0
0
0
0
0
0
0
0
0
0
0
0
0
0
0
0
0
0
0
0
0
0
0
0
0
0
0
0
0
0
0
0
0
0
0
0
0
0
0
0
0
0
0
0
0
0
0
0
0
0
0
0
0
0
0
0
0
0
0
0
0
0
0
0
0
0
0
0
0
0
0
0
0
0
0
0
0
0
0
0
0
0
0
0
0
0
0
0
0
0
0
0
0
0
0
0
0
0
0
0
0
0
0
0
0
0
0
0
0
0
0
0
0
0
0
0
0
0
0
0
0
0
0
0
0
0
0
0
0
0
0
0
0
0
0
0
0
0
0
0
0
0
0
0
0
0
0
0
0
0
0
0
0
0
0
0
0
0
0
0
0
0
0
0
0
0
0
0
0
0
0
0
0
0
0
0
0
0
0
0
0
0
0
0
0
0
0
0
0
0
0
0
0
0
0
0
0
0
0
0
0
0
0
0
0
0
0
0
0
0
0
0
0
0
0
0
0
0
0
0
0
0
0
0
0
0
0
0
0
0
0
0
0
0
0
0
0
0
0
0
0
0
0
0
0
0
0
0
0
0
0
0
0
0
0
0
0
0
0
0
0
0
0
0
0
0
0
0
0
0
0
0
0
0
0
0
0
0
0
0
0
0
0
0
0
0
0
0
0
0
0
0
0
0
0
0
0
0
0
0
0
0
0
0
0
0
0
0
0
0
0
0
0
0
0
0
0
0
0
0
0
0
0
0
0
0
0
0
0
0
0
0
0
0
0
0
0
0
0
0
0
0
0
0
0
0
0
0
0
0
0
0
0
0
0
0
0
0
0
0
0
0
0
0
0
0
0
0
0
0
0
0
0
0
0
0
0
0
0
0
0
0
0
0
0
0
0
0
0
0
0
0
0
0
0
0
0
0
0
0
0
0
0
0
0
0
0
0
0
0
0
0
0
0
0
0
0
0
0
0
0
0
0
0
0
0
0
0
0
0
0
0
0
0
0
0
0
0
0
0
0
0
0
0
0
0
0
0
0
0
0
0
0
0
0
0
0
0
0
0
0
0
0
0
0
0
0
0
0
0
0
0
0
0
0
0
0
0
0
0
0
0
0
0
0
0
0
0
0
0
0
0
0
0
0
0
0
0
0
0
0
0
0
0
0
0
0
0
0
0
0
0
0
0
0
0
0
0
0
0
0
0
0
0
0
0
0
0
0
0
0
0
0
0
0
0
0
0
0
0
0
0
0
0
0
0
0
0
0
0
0
0
0
0
0
0
0
0
0
0
0
0
0
0
0
0
0
0
0
0
0
0
0
0
0
0
0
0
0
0
0
0
0
0
0
0
0
0
0
0
0
0
0
0
0
0
0
0
0
0
0
0
0
0
0
0
0
0
0
0
0
0
0
0
0
0
0
0
0
0
0
0
0
0
0
0
0
0
0
0
0
0
0
0
0
0
0
0
0
0
0
0
0
0
0
0
0
0
0
0
0
0
0
0
0
0
0
0
0
0
0
0
0
0
0
0
0
0
0
0
0
0
0
0
0
0
0
0
0
0
0
0
0
0
0
0
0
0
0
0
0
0
0
0
0
0
0
0
0
0
0
0
0
0
0
0
0
0
0
0
0
0
0
0
0
0
0
0
0
0
0
0
0
0
0
0
0
0
0
0
0
0
0
0
0
0
0
0
0
0
0
0
0
0
0
0
0
0
0
0
0
0
0
0
0
0
0
0
0
0
0
0
0
0
0
0
0
0
0
0
0
0
0
0
0
0
0
0
0
0
0
0.0627869
0.0345541
0.0299574
0.025277
0.0221391
0.0200069
0.0184495
0.0172639
0.0163155
0.0155312
0.0148652
0.0142883
0.0137809
0.0133293
0.0129235
0.0125561
0.0122214
0.0119146
0.0116322
0.011371
0.0111285
0.0109026
0.0106914
0.0104933
0.0103069
0.010131
0.0099643
0.00980599
0.00965514
0.00951102
0.00937304
0.00924088
0.00911452
0.00899439
0.00888151
0.00877757
0.00868506
0.00860729
0.00854819
0.00851205
0.00850287
0.00852349
0.00857434
0.00865203
0.00874764
0.00884523
0.00892044
0.00893992
0.00886169
0.00863696
0.00821437
0.00754582
0.00659584
0.00535252
0.00383959
0.00213004
0.000352094
-0.00130998
-0.00262884
-0.00336643
-0.00330772
-0.00229239
-0.000239348
0.00285199
0.00690946
0.0118019
0.0173642
0.02341
0.0297515
0.0362069
0.042604
0.0487909
0.0546337
0.0600178
0.064839
0.0690118
0.0724779
0.0751963
0.0771291
0.0782431
0.0785228
0.0779793
0.0766499
0.0745919
0.0718773
0.0685901
0.064826
0.0606921
0.0563047
0.0517829
0.0472406
0.0427786
0.0384796
0.0344059
0.0306002
0.0270879
0.0238796
0.020975
0.018365
0.016035
0.0139663
0.0121386
0.0105302
0.00912001
0.00788727
0.00681252
0.00587765
0.00506607
0.00436274
0.00375413
0.00322818
0.00277418
0.00238269
0.00204539
0.00175502
0.00150522
0.00129046
0.00110593
0.000947449
0.000811408
0.000694677
0.000594557
0.000508714
0.000435139
0.000372099
0.000318102
0.000271865
0.000232284
0.000198412
0.000169432
0.000144645
0.00012345
0.000105332
8.98481e-05
7.66199e-05
6.53217e-05
5.56741e-05
4.7438e-05
4.04087e-05
3.44117e-05
2.92974e-05
2.49369e-05
2.12186e-05
1.80463e-05
1.5338e-05
1.30252e-05
1.10518e-05
9.37099e-06
7.94194e-06
6.72723e-06
5.69225e-06
4.80725e-06
4.05067e-06
3.41121e-06
2.88613e-06
2.47513e-06
2.17153e-06
1.95461e-06
1.78762e-06
1.62372e-06
1.41906e-06
1.14823e-06
8.15934e-07
4.59077e-07
1.37215e-07
-8.63148e-08
-1.66247e-07
-9.24355e-08
1.04202e-07
3.59187e-07
5.92973e-07
7.34192e-07
7.39942e-07
6.06768e-07
3.69392e-07
8.8417e-08
-1.68396e-07
-3.45109e-07
-4.11271e-07
-3.66973e-07
-2.38965e-07
-7.01755e-08
9.34661e-08
2.14895e-07
2.7348e-07
2.67059e-07
2.08947e-07
1.2168e-07
2.9778e-08
-4.64261e-08
-9.45767e-08
-1.11303e-07
-1.00856e-07
-7.22904e-08
-3.62289e-08
-2.10678e-09
2.35869e-08
3.79209e-08
4.11631e-08
3.58096e-08
2.54019e-08
1.34652e-08
2.76997e-09
-5.01525e-09
-9.32514e-09
-1.04631e-08
-9.25789e-09
-6.7228e-09
-3.78933e-09
-1.14828e-09
8.05072e-10
1.94614e-09
2.34985e-09
2.20448e-09
1.73386e-09
1.14098e-09
5.76576e-10
1.29816e-10
-1.65373e-10
-3.15629e-10
-3.51253e-10
-3.1134e-10
-2.33065e-10
-1.456e-10
-6.7974e-11
-9.71559e-12
2.69894e-11
4.46629e-11
4.81211e-11
4.26485e-11
3.28574e-11
2.21544e-11
1.26551e-11
5.36779e-12
4.97187e-13
-2.24139e-12
-3.35892e-12
-3.40595e-12
-2.86197e-12
-2.08659e-12
-1.31352e-12
-6.68855e-13
-1.99401e-13
9.8483e-14
2.54861e-13
3.08916e-13
2.98206e-13
2.53256e-13
1.95883e-13
1.39755e-13
9.20476e-14
5.53634e-14
2.94876e-14
1.27533e-14
2.98491e-15
-1.93352e-15
-3.77304e-15
-3.8668e-15
-3.12937e-15
-2.13014e-15
-1.18262e-15
-4.2769e-16
9.89983e-17
4.17964e-16
5.7342e-16
6.13925e-16
5.82412e-16
5.12275e-16
4.26988e-16
3.41468e-16
2.64057e-16
1.985e-16
1.45609e-16
1.04523e-16
7.35845e-17
5.08935e-17
3.463e-17
2.32094e-17
1.53363e-17
9.99957e-18
6.43813e-18
4.09567e-18
2.57582e-18
1.60229e-18
9.86257e-19
6.00939e-19
3.62589e-19
2.16711e-19
1.28338e-19
7.53271e-20
4.38307e-20
2.52891e-20
1.44713e-20
8.21459e-21
4.62644e-21
2.58563e-21
1.4342e-21
7.89674e-22
4.31657e-22
2.34283e-22
1.26272e-22
6.7592e-23
3.59377e-23
1.89811e-23
9.95983e-24
5.19261e-24
2.69007e-24
1.38492e-24
7.0861e-25
3.60368e-25
1.8217e-25
9.15446e-26
4.57346e-26
2.27167e-26
1.12193e-26
5.5097e-27
2.69071e-27
1.30679e-27
6.31209e-28
3.03244e-28
1.44906e-28
6.88782e-29
3.25687e-29
1.53202e-29
7.16961e-30
3.33821e-30
1.54647e-30
7.12849e-31
3.26965e-31
1.49236e-31
6.77841e-32
3.06399e-32
1.37837e-32
6.17141e-33
2.75015e-33
1.21983e-33
5.38553e-34
2.3668e-34
1.03541e-34
4.50913e-35
1.95489e-35
8.43747e-36
3.62559e-36
1.55108e-36
6.6068e-37
2.80198e-37
1.18322e-37
4.9752e-38
2.08309e-38
8.68501e-39
3.60588e-39
1.49088e-39
6.13866e-40
2.5172e-40
1.02798e-40
4.18108e-41
1.6937e-41
6.83344e-42
2.74606e-42
1.09915e-42
4.38217e-43
1.74028e-43
6.88421e-44
2.71272e-44
1.06484e-44
4.16384e-45
1.62199e-45
6.29443e-46
2.43347e-46
9.37271e-47
3.59653e-47
1.37496e-47
5.23711e-48
1.98746e-48
7.51477e-49
2.83109e-49
1.06272e-49
3.97487e-50
1.48139e-50
5.50132e-51
2.03574e-51
7.50664e-52
2.7583e-52
1.00999e-52
3.68538e-53
1.34011e-53
4.85627e-54
1.75377e-54
6.31187e-55
2.26394e-55
8.09284e-56
2.88318e-56
1.02373e-56
3.62282e-57
1.2778e-57
4.49198e-58
1.57391e-58
5.49663e-59
1.91333e-59
6.6385e-60
2.29583e-60
7.91419e-61
2.71941e-61
9.31434e-62
3.18011e-62
1.08231e-62
3.67186e-63
1.24179e-63
4.18648e-64
1.40699e-64
4.71386e-65
1.5744e-65
5.24214e-66
1.74006e-66
5.7582e-67
1.89968e-67
6.24815e-68
2.04882e-68
6.69796e-69
2.1831e-69
7.09412e-70
2.2984e-70
7.42434e-71
2.39111e-71
7.67815e-72
2.45829e-72
7.84752e-73
2.49782e-73
7.92722e-74
2.50852e-74
7.91511e-75
2.49024e-75
7.81224e-76
2.44379e-76
7.62272e-77
2.37093e-77
7.35351e-78
2.27426e-78
7.01393e-79
2.15705e-79
6.6152e-80
2.02307e-80
6.16979e-81
1.87639e-81
5.69082e-82
1.72119e-82
5.19144e-83
1.56155e-83
4.68423e-84
1.40132e-84
4.18078e-85
1.24394e-85
3.69124e-86
1.09238e-86
3.22412e-87
9.49047e-88
2.78616e-88
8.15771e-89
2.38221e-89
6.93815e-90
2.01541e-90
5.83904e-91
1.68726e-91
4.86281e-92
1.39785e-92
4.00782e-93
1.14612e-93
3.26911e-94