# vtk DataFile Version 2.0
FlowField
ASCII
DATASET STRUCTURED_GRID
DIMENSIONS 1602 1 52
POINTS 83304 float
0 0 0
0.1 0 0
0.2 0 0
0.3 0 0
0.4 0 0
0.5 0 0
0.6 0 0
0.7 0 0
0.8 0 0
0.9 0 0
1 0 0
1.1 0 0
1.2 0 0
1.3 0 0
1.4 0 0
1.5 0 0
1.6 0 0
1.7 0 0
1.8 0 0
1.9 0 0
2 0 0
2.1 0 0
2.2 0 0
2.3 0 0
2.4 0 0
2.5 0 0
2.6 0 0
2.7 0 0
2.8 0 0
2.9 0 0
3 0 0
3.1 0 0
3.2 0 0
3.3 0 0
3.4 0 0
3.5 0 0
3.6 0 0
3.7 0 0
3.8 0 0
3.9 0 0
4 0 0
4.1 0 0
4.2 0 0
4.3 0 0
4.4 0 0
4.5 0 0
4.6 0 0
4.7 0 0
4.8 0 0
4.9 0 0
5 0 0
5.1 0 0
5.2 0 0
5.3 0 0
5.4 0 0
5.5 0 0
5.6 0 0
5.7 0 0
5.8 0 0
5.9 0 0
6 0 0
6.1 0 0
6.2 0 0
6.3 0 0
6.4 0 0
6.5 0 0
6.6 0 0
6.7 0 0
6.8 0 0
6.9 0 0
7 0 0
7.1 0 0
7.2 0 0
7.3 0 0
7.4 0 0
7.5 0 0
7.6 0 0
7.7 0 0
7.8 0 0
7.9 0 0
8 0 0
8.1 0 0
8.2 0 0
8.3 0 0
8.4 0 0
8.5 0 0
8.6 0 0
8.7 0 0
8.8 0 0
8.9 0 0
9 0 0
9.1 0 0
9.2 0 0
9.3 0 0
9.4 0 0
9.5 0 0
9.6 0 0
9.7 0 0
9.8 0 0
9.9 0 0
10 0 0
10.1 0 0
10.2 0 0
10.3 0 0
10.4 0 0
10.5 0 0
10.6 0 0
10.7 0 0
10.8 0 0
10.9 0 0
11 0 0
11.1 0 0
11.2 0 0
11.3 0 0
11.4 0 0
11.5 0 0
11.6 0 0
11.7 0 0
11.8 0 0
11.9 0 0
12 0 0
12.1 0 0
12.2 0 0
12.3 0 0
12.4 0 0
12.5 0 0
12.6 0 0
12.7 0 0
12.8 0 0
12.9 0 0
13 0 0
13.1 0 0
13.2 0 0
13.3 0 0
13.4 0 0
13.5 0 0
13.6 0 0
13.7 0 0
13.8 0 0
13.9 0 0
14 0 0
14.1 0 0
14.2 0 0
14.3 0 0
14.4 0 0
14.5 0 0
14.6 0 0
14.7 0 0
14.8 0 0
14.9 0 0
15 0 0
15.1 0 0
15.2 0 0
15.3 0 0
15.4 0 0
15.5 0 0
15.6 0 0
15.7 0 0
15.8 0 0
15.9 0 0
16 0 0
16.1 0 0
16.2 0 0
16.3 0 0
16.4 0 0
16.5 0 0
16.6 0 0
16.7 0 0
16.8 0 0
16.9 0 0
17 0 0
17.1 0 0
17.2 0 0
17.3 0 0
17.4 0 0
17.5 0 0
17.6 0 0
17.7 0 0
17.8 0 0
17.9 0 0
18 0 0
18.1 0 0
18.2 0 0
18.3 0 0
18.4 0 0
18.5 0 0
18.6 0 0
18.7 0 0
18.8 0 0
18.9 0 0
19 0 0
19.1 0 0
19.2 0 0
19.3 0 0
19.4 0 0
19.5 0 0
19.6 0 0
19.7 0 0
19.8 0 0
19.9 0 0
20 0 0
20.1 0 0
20.2 0 0
20.3 0 0
20.4 0 0
20.5 0 0
20.6 0 0
20.7 0 0
20.8 0 0
20.9 0 0
21 0 0
21.1 0 0
21.2 0 0
21.3 0 0
21.4 0 0
21.5 0 0
21.6 0 0
21.7 0 0
21.8 0 0
21.9 0 0
22 0 0
22.1 0 0
22.2 0 0
22.3 0 0
22.4 0 0
22.5 0 0
22.6 0 0
22.7 0 0
22.8 0 0
22.9 0 0
23 0 0
23.1 0 0
23.2 0 0
23.3 0 0
23.4 0 0
23.5 0 0
23.6 0 0
23.7 0 0
23.8 0 0
23.9 0 0
24 0 0
24.1 0 0
24.2 0 0
24.3 0 0
24.4 0 0
24.5 0 0
24.6 0 0
24.7 0 0
24.8 0 0
24.9 0 0
25 0 0
25.1 0 0
25.2 0 0
25.3 0 0
25.4 0 0
25.5 0 0
25.6 0 0
25.7 0 0
25.8 0 0
25.9 0 0
26 0 0
26.1 0 0
26.2 0 0
26.3 0 0
26.4 0 0
26.5 0 0
26.6 0 0
26.7 0 0
26.8 0 0
26.9 0 0
27 0 0
27.1 0 0
27.2 0 0
27.3 0 0
27.4 0 0
27.5 0 0
27.6 0 0
27.7 0 0
27.8 0 0
27.9 0 0
28 0 0
28.1 0 0
28.2 0 0
28.3 0 0
28.4 0 0
28.5 0 0
28.6 0 0
28.7 0 0
28.8 0 0
28.9 0 0
29 0 0
29.1 0 0
29.2 0 0
29.3 0 0
29.4 0 0
29.5 0 0
29.6 0 0
29.7 0 0
29.8 0 0
29.9 0 0
30 0 0
30.1 0 0
30.2 0 0
30.3 0 0
30.4 0 0
30.5 0 0
30.6 0 0
30.7 0 0
30.8 0 0
30.9 0 0
31 0 0
31.1 0 0
31.2 0 0
31.3 0 0
31.4 0 0
31.5 0 0
31.6 0 0
31.7 0 0
31.8 0 0
31.9 0 0
32 0 0
32.1 0 0
32.2 0 0
32.3 0 0
32.4 0 0
32.5 0 0
32.6 0 0
32.7 0 0
32.8 0 0
32.9 0 0
33 0 0
33.1 0 0
33.2 0 0
33.3 0 0
33.4 0 0
33.5 0 0
33.6 0 0
33.7 0 0
33.8 0 0
33.9 0 0
34 0 0
34.1 0 0
34.2 0 0
34.3 0 0
34.4 0 0
34.5 0 0
34.6 0 0
34.7 0 0
34.8 0 0
34.9 0 0
35 0 0
35.1 0 0
35.2 0 0
35.3 0 0
35.4 0 0
35.5 0 0
35.6 0 0
35.7 0 0
35.8 0 0
35.9 0 0
36 0 0
36.1 0 0
36.2 0 0
36.3 0 0
36.4 0 0
36.5 0 0
36.6 0 0
36.7 0 0
36.8 0 0
36.9 0 0
37 0 0
37.1 0 0
37.2 0 0
37.3 0 0
37.4 0 0
37.5 0 0
37.6 0 0
37.7 0 0
37.8 0 0
37.9 0 0
38 0 0
38.1 0 0
38.2 0 0
38.3 0 0
38.4 0 0
38.5 0 0
38.6 0 0
38.7 0 0
38.8 0 0
38.9 0 0
39 0 0
39.1 0 0
39.2 0 0
39.3 0 0
39.4 0 0
39.5 0 0
39.6 0 0
39.7 0 0
39.8 0 0
39.9 0 0
40 0 0
40.1 0 0
40.2 0 0
40.3 0 0
40.4 0 0
40.5 0 0
40.6 0 0
40.7 0 0
40.8 0 0
40.9 0 0
41 0 0
41.1 0 0
41.2 0 0
41.3 0 0
41.4 0 0
41.5 0 0
41.6 0 0
41.7 0 0
41.8 0 0
41.9 0 0
42 0 0
42.1 0 0
42.2 0 0
42.3 0 0
42.4 0 0
42.5 0 0
42.6 0 0
42.7 0 0
42.8 0 0
42.9 0 0
43 0 0
43.1 0 0
43.2 0 0
43.3 0 0
43.4 0 0
43.5 0 0
43.6 0 0
43.7 0 0
43.8 0 0
43.9 0 0
44 0 0
44.1 0 0
44.2 0 0
44.3 0 0
44.4 0 0
44.5 0 0
44.6 0 0
44.7 0 0
44.8 0 0
44.9 0 0
45 0 0
45.1 0 0
45.2 0 0
45.3 0 0
45.4 0 0
45.5 0 0
45.6 0 0
45.7 0 0
45.8 0 0
45.9 0 0
46 0 0
46.1 0 0
46.2 0 0
46.3 0 0
46.4 0 0
46.5 0 0
46.6 0 0
46.7 0 0
46.8 0 0
46.9 0 0
47 0 0
47.1 0 0
47.2 0 0
47.3 0 0
47.4 0 0
47.5 0 0
47.6 0 0
47.7 0 0
47.8 0 0
47.9 0 0
48 0 0
48.1 0 0
48.2 0 0
48.3 0 0
48.4 0 0
48.5 0 0
48.6 0 0
48.7 0 0
48.8 0 0
48.9 0 0
49 0 0
49.1 0 0
49.2 0 0
49.3 0 0
49.4 0 0
49.5 0 0
49.6 0 0
49.7 0 0
49.8 0 0
49.9 0 0
50 0 0
50.1 0 0
50.2 0 0
50.3 0 0
50.4 0 0
50.5 0 0
50.6 0 0
50.7 0 0
50.8 0 0
50.9 0 0
51 0 0
51.1 0 0
51.2 0 0
51.3 0 0
51.4 0 0
51.5 0 0
51.6 0 0
51.7 0 0
51.8 0 0
51.9 0 0
52 0 0
52.1 0 0
52.2 0 0
52.3 0 0
52.4 0 0
52.5 0 0
52.6 0 0
52.7 0 0
52.8 0 0
52.9 0 0
53 0 0
53.1 0 0
53.2 0 0
53.3 0 0
53.4 0 0
53.5 0 0
53.6 0 0
53.7 0 0
53.8 0 0
53.9 0 0
54 0 0
54.1 0 0
54.2 0 0
54.3 0 0
54.4 0 0
54.5 0 0
54.6 0 0
54.7 0 0
54.8 0 0
54.9 0 0
55 0 0
55.1 0 0
55.2 0 0
55.3 0 0
55.4 0 0
55.5 0 0
55.6 0 0
55.7 0 0
55.8 0 0
55.9 0 0
56 0 0
56.1 0 0
56.2 0 0
56.3 0 0
56.4 0 0
56.5 0 0
56.6 0 0
56.7 0 0
56.8 0 0
56.9 0 0
57 0 0
57.1 0 0
57.2 0 0
57.3 0 0
57.4 0 0
57.5 0 0
57.6 0 0
57.7 0 0
57.8 0 0
57.9 0 0
58 0 0
58.1 0 0
58.2 0 0
58.3 0 0
58.4 0 0
58.5 0 0
58.6 0 0
58.7 0 0
58.8 0 0
58.9 0 0
59 0 0
59.1 0 0
59.2 0 0
59.3 0 0
59.4 0 0
59.5 0 0
59.6 0 0
59.7 0 0
59.8 0 0
59.9 0 0
60 0 0
60.1 0 0
60.2 0 0
60.3 0 0
60.4 0 0
60.5 0 0
60.6 0 0
60.7 0 0
60.8 0 0
60.9 0 0
61 0 0
61.1 0 0
61.2 0 0
61.3 0 0
61.4 0 0
61.5 0 0
61.6 0 0
61.7 0 0
61.8 0 0
61.9 0 0
62 0 0
62.1 0 0
62.2 0 0
62.3 0 0
62.4 0 0
62.5 0 0
62.6 0 0
62.7 0 0
62.8 0 0
62.9 0 0
63 0 0
63.1 0 0
63.2 0 0
63.3 0 0
63.4 0 0
63.5 0 0
63.6 0 0
63.7 0 0
63.8 0 0
63.9 0 0
64 0 0
64.1 0 0
64.2 0 0
64.3 0 0
64.4 0 0
64.5 0 0
64.6 0 0
64.7 0 0
64.8 0 0
64.9 0 0
65 0 0
65.1 0 0
65.2 0 0
65.3 0 0
65.4 0 0
65.5 0 0
65.6 0 0
65.7 0 0
65.8 0 0
65.9 0 0
66 0 0
66.1 0 0
66.2 0 0
66.3 0 0
66.4 0 0
66.5 0 0
66.6 0 0
66.7 0 0
66.8 0 0
66.9 0 0
67 0 0
67.1 0 0
67.2 0 0
67.3 0 0
67.4 0 0
67.5 0 0
67.6 0 0
67.7 0 0
67.8 0 0
67.9 0 0
68 0 0
68.1 0 0
68.2 0 0
68.3 0 0
68.4 0 0
68.5 0 0
68.6 0 0
68.7 0 0
68.8 0 0
68.9 0 0
69 0 0
69.1 0 0
69.2 0 0
69.3 0 0
69.4 0 0
69.5 0 0
69.6 0 0
69.7 0 0
69.8 0 0
69.9 0 0
70 0 0
70.1 0 0
70.2 0 0
70.3 0 0
70.4 0 0
70.5 0 0
70.6 0 0
70.7 0 0
70.8 0 0
70.9 0 0
71 0 0
71.1 0 0
71.2 0 0
71.3 0 0
71.4 0 0
71.5 0 0
71.6 0 0
71.7 0 0
71.8 0 0
71.9 0 0
72 0 0
72.1 0 0
72.2 0 0
72.3 0 0
72.4 0 0
72.5 0 0
72.6 0 0
72.7 0 0
72.8 0 0
72.9 0 0
73 0 0
73.1 0 0
73.2 0 0
73.3 0 0
73.4 0 0
73.5 0 0
73.6 0 0
73.7 0 0
73.8 0 0
73.9 0 0
74 0 0
74.1 0 0
74.2 0 0
74.3 0 0
74.4 0 0
74.5 0 0
74.6 0 0
74.7 0 0
74.8 0 0
74.9 0 0
75 0 0
75.1 0 0
75.2 0 0
75.3 0 0
75.4 0 0
75.5 0 0
75.6 0 0
75.7 0 0
75.8 0 0
75.9 0 0
76 0 0
76.1 0 0
76.2 0 0
76.3 0 0
76.4 0 0
76.5 0 0
76.6 0 0
76.7 0 0
76.8 0 0
76.9 0 0
77 0 0
77.1 0 0
77.2 0 0
77.3 0 0
77.4 0 0
77.5 0 0
77.6 0 0
77.7 0 0
77.8 0 0
77.9 0 0
78 0 0
78.1 0 0
78.2 0 0
78.3 0 0
78.4 0 0
78.5 0 0
78.6 0 0
78.7 0 0
78.8 0 0
78.9 0 0
79 0 0
79.1 0 0
79.2 0 0
79.3 0 0
79.4 0 0
79.5 0 0
79.6 0 0
79.7 0 0
79.8 0 0
79.9 0 0
80 0 0
80.1 0 0
80.2 0 0
80.3 0 0
80.4 0 0
80.5 0 0
80.6 0 0
80.7 0 0
80.8 0 0
80.9 0 0
81 0 0
81.1 0 0
81.2 0 0
81.3 0 0
81.4 0 0
81.5 0 0
81.6 0 0
81.7 0 0
81.8 0 0
81.9 0 0
82 0 0
82.1 0 0
82.2 0 0
82.3 0 0
82.4 0 0
82.5 0 0
82.6 0 0
82.7 0 0
82.8 0 0
82.9 0 0
83 0 0
83.1 0 0
83.2 0 0
83.3 0 0
83.4 0 0
83.5 0 0
83.6 0 0
83.7 0 0
83.8 0 0
83.9 0 0
84 0 0
84.1 0 0
84.2 0 0
84.3 0 0
84.4 0 0
84.5 0 0
84.6 0 0
84.7 0 0
84.8 0 0
84.9 0 0
85 0 0
85.1 0 0
85.2 0 0
85.3 0 0
85.4 0 0
85.5 0 0
85.6 0 0
85.7 0 0
85.8 0 0
85.9 0 0
86 0 0
86.1 0 0
86.2 0 0
86.3 0 0
86.4 0 0
86.5 0 0
86.6 0 0
86.7 0 0
86.8 0 0
86.9 0 0
87 0 0
87.1 0 0
87.2 0 0
87.3 0 0
87.4 0 0
87.5 0 0
87.6 0 0
87.7 0 0
87.8 0 0
87.9 0 0
88 0 0
88.1 0 0
88.2 0 0
88.3 0 0
88.4 0 0
88.5 0 0
88.6 0 0
88.7 0 0
88.8 0 0
88.9 0 0
89 0 0
89.1 0 0
89.2 0 0
89.3 0 0
89.4 0 0
89.5 0 0
89.6 0 0
89.7 0 0
89.8 0 0
89.9 0 0
90 0 0
90.1 0 0
90.2 0 0
90.3 0 0
90.4 0 0
90.5 0 0
90.6 0 0
90.7 0 0
90.8 0 0
90.9 0 0
91 0 0
91.1 0 0
91.2 0 0
91.3 0 0
91.4 0 0
91.5 0 0
91.6 0 0
91.7 0 0
91.8 0 0
91.9 0 0
92 0 0
92.1 0 0
92.2 0 0
92.3 0 0
92.4 0 0
92.5 0 0
92.6 0 0
92.7 0 0
92.8 0 0
92.9 0 0
93 0 0
93.1 0 0
93.2 0 0
93.3 0 0
93.4 0 0
93.5 0 0
93.6 0 0
93.7 0 0
93.8 0 0
93.9 0 0
94 0 0
94.1 0 0
94.2 0 0
94.3 0 0
94.4 0 0
94.5 0 0
94.6 0 0
94.7 0 0
94.8 0 0
94.9 0 0
95 0 0
95.1 0 0
95.2 0 0
95.3 0 0
95.4 0 0
95.5 0 0
95.6 0 0
95.7 0 0
95.8 0 0
95.9 0 0
96 0 0
96.1 0 0
96.2 0 0
96.3 0 0
96.4 0 0
96.5 0 0
96.6 0 0
96.7 0 0
96.8 0 0
96.9 0 0
97 0 0
97.1 0 0
97.2 0 0
97.3 0 0
97.4 0 0
97.5 0 0
97.6 0 0
97.7 0 0
97.8 0 0
97.9 0 0
98 0 0
98.1 0 0
98.2 0 0
98.3 0 0
98.4 0 0
98.5 0 0
98.6 0 0
98.7 0 0
98.8 0 0
98.9 0 0
99 0 0
99.1 0 0
99.2 0 0
99.3 0 0
99.4 0 0
99.5 0 0
99.6 0 0
99.7 0 0
99.8 0 0
99.9 0 0
100 0 0
100.1 0 0
100.2 0 0
100.3 0 0
100.4 0 0
100.5 0 0
100.6 0 0
100.7 0 0
100.8 0 0
100.9 0 0
101 0 0
101.1 0 0
101.2 0 0
101.3 0 0
101.4 0 0
101.5 0 0
101.6 0 0
101.7 0 0
101.8 0 0
101.9 0 0
102 0 0
102.1 0 0
102.2 0 0
102.3 0 0
102.4 0 0
102.5 0 0
102.6 0 0
102.7 0 0
102.8 0 0
102.9 0 0
103 0 0
103.1 0 0
103.2 0 0
103.3 0 0
103.4 0 0
103.5 0 0
103.6 0 0
103.7 0 0
103.8 0 0
103.9 0 0
104 0 0
104.1 0 0
104.2 0 0
104.3 0 0
104.4 0 0
104.5 0 0
104.6 0 0
104.7 0 0
104.8 0 0
104.9 0 0
105 0 0
105.1 0 0
105.2 0 0
105.3 0 0
105.4 0 0
105.5 0 0
105.6 0 0
105.7 0 0
105.8 0 0
105.9 0 0
106 0 0
106.1 0 0
106.2 0 0
106.3 0 0
106.4 0 0
106.5 0 0
106.6 0 0
106.7 0 0
106.8 0 0
106.9 0 0
107 0 0
107.1 0 0
107.2 0 0
107.3 0 0
107.4 0 0
107.5 0 0
107.6 0 0
107.7 0 0
107.8 0 0
107.9 0 0
108 0 0
108.1 0 0
108.2 0 0
108.3 0 0
108.4 0 0
108.5 0 0
108.6 0 0
108.7 0 0
108.8 0 0
108.9 0 0
109 0 0
109.1 0 0
109.2 0 0
109.3 0 0
109.4 0 0
109.5 0 0
109.6 0 0
109.7 0 0
109.8 0 0
109.9 0 0
110 0 0
110.1 0 0
110.2 0 0
110.3 0 0
110.4 0 0
110.5 0 0
110.6 0 0
110.7 0 0
110.8 0 0
110.9 0 0
111 0 0
111.1 0 0
111.2 0 0
111.3 0 0
111.4 0 0
111.5 0 0
111.6 0 0
111.7 0 0
111.8 0 0
111.9 0 0
112 0 0
[...]
POINT_DATA 83304

SCALARS pressure float 1
LOOKUP_TABLE default
0
0
0
0
0
0
0
0
0
0
0
0
0
0
0
0
0
0
0
0
0
0
0
0
0
0
0
0
0
0
0
0
0
0
0
0
0
0
0
0
0
0
0
0
0
0
0
0
0
0
0
0
0
0
0
0
0
0
0
0
0
0
0
0
0
0
0
0
0
0
0
0
0
0
0
0
0
0
0
0
0
0
0
0
0
0
0
0
0
0
0
0
0
0
0
0
0
0
0
0
0
0
0
0
0
0
0
0
0
0
0
0
0
0
0
0
0
0
0
0
0
0
0
0
0
0
0
0
0
0
0
0
0
0
0
0
0
0
0
0
0
0
0
0
0
0
0
0
0
0
0
0
0
0
0
0
0
0
0
0
0
0
0
0
0
0
0
0
0
0
0
0
0
0
0
0
0
0
0
0
0
0
0
0
0
0
0
0
0
0
0
0
0
0
0
0
0
0
0
0
0
0
0
0
0
0
0
0
0
0
0
0
0
0
0
0
0
0
0
0
0
0
0
0
0
0
0
0
0
0
0
0
0
0
0
0
0
0
0
0
0
0
0
0
0
0
0
0
0
0
0
0
0
0
0
0
0
0
0
0
0
0
0
0
0
0
0
0
0
0
0
0
0
0
0
0
0
0
0
0
0
0
0
0
0
0
0
0
0
0
0
0
0
0
0
0
0
0
0
0
0
0
0
0
0
0
0
0
0
0
0
0
0
0
0
0
0
0
0
0
0
0
0
0
0
0
0
0
0
0
0
0
0
0
0
0
0
0
0
0
0
0
0
0
0
0
0
0
0
0
0
0
0
0
0
0
0
0
0
0
0
0
0
0
0
0
0
0
0
0
0
0
0
0
0
0
0
0
0
0
0
0
0
0
0
0
0
0
0
0
0
0
0
0
0
0
0
0
0
0
0
0
0
0
0
0
0
0
0
0
0
0
0
0
0
0
0
0
0
0
0
0
0
0
0
0
0
0
0
0
0
0
0
0
0
0
0
0
0
0
0
0
0
0
0
0
0
0
0
0
0
0
0
0
0
0
0
0
0
0
0
0
0
0
0
0
0
0
0
0
0
0
0
0
0
0
0
0
0
0
0
0
0
0
0
0
0
0
0
0
0
0
0
0
0
0
0
0
0
0
0
0
0
0
0
0
0
0
0
0
0
0
0
0
0
0
0
0
0
0
0
0
0
0
0
0
0
0
0
0
0
0
0
0
0
0
0
0
0
0
0
0
0
0
0
0
0
0
0
0
0
0
0
0
0
0
0
0
0
0
0
0
0
0
0
0
0
0
0
0
0
0
0
0
0
0
0
0
0
0
0
0
0
0
0
0
0
0
0
0
0
0
0
0
0
0
0
0
0
0
0
0
0
0
0
0
0
0
0
0
0
0
0
0
0
0
0
0
0
0
0
0
0
0
0
0
0
0
0
0
0
0
0
0
0
0
0
0
0
0
0
0
0
0
0
0
0
0
0
0
0
0
0
0
0
0
0
0
0
0
0
0
0
0
0
0
0
0
0
0
0
0
0
0
0
0
0
0
0
0
0
0
0
0
0
0
0
0
0
0
0
0
0
0
0
0
0
0
0
0
0
0
0
0
0
0
0
0
0
0
0
0
0
0
0
0
0
0
0
0
0
0
0
0
0
0
0
0
0
0
0
0
0
0
0
0
0
0
0
0
0
0
0
0
0
0
0
0
0
0
0
0
0
0
0
0
0
0
0
0
0
0
0
0
0
0
0
0
0
0
0
0
0
0
0
0
0
0
0
0
0
0
0
0
0
0
0
0
0
0
0
0
0
0
0
0
0
0
0
0
0
0
0
0
0
0
0
0
0
0
0
0
0
0
0
0
0
0
0
0
0
0
0
0
0
0
0
0
0
0
0
0
0
0
0
0
0
0
0
0
0
0
0
0
0
0
0
0
0
0
0
0
0
0
0
0
0
0
0
0
0
0
0
0
0
0
0
0
0
0
0
0
0
0
0
0
0
0
0
0
0
0
0
0
0
0
0
0
0
0
0
0
0
0
0
0
0
0
0
0
0
0
0
0
0
0
0
0
0
0
0
0
0
0
0
0
0
0
0
0
0
0
0
0
0
0
0
0
0
0
0
0
0
0
0
0
0
0
0
0
0
0
0
0
0
0
0
0
0
0
0
0
0
0
0
0
0
0
0
0
0
0
0
0
0
0
0
0
0
0
0
0
0
0
0
0
0
0
0
0
0
0
0
0
0
0
0
0
0
0
0
0
0
0
0
0
0
0
0
0
0
0
0
0
0
0
0
0
0
0
0
0
0
0
0
0
0
0
0
0
0
0
0
0
0
0
0
0
0
0
0
0
0
0
0
0
0
0
0
0
0
0
0
0
0
0
0
0
0
0
0
0
0
0
0
0
0
0
0
0
0
0
0
0
0
0
0
0
0
0
0
0
0
0
0
0
0
0
0
0
0
0
0
0
0
0
0
0
0
0
0
0
0
0
0
0
0
0
0
0
0
0
0
0
0
0
0
0
0
0
0
0
0
0
0
0
0
0
0
0
0
0
0
0
0
0
0
0
0
0
0
0
0
0
0
0
0
0
0
0
0
0
0
0
0
0
0
0
0
0
0
0
0
0
0
0
0
0
0
0
0
0
0
0
0
0
0
0
0
0
0
0
0
0
0
0
0
0
0
0
0
0
0
0
0
0
0
0
0
0
0
0
0
0
0
0
0
0
0
0
0
0
0
0
0
0
0
0
0
0
0
0
0
0
0
0
0
0
0
0
0
0
0
0
0
0
0
0
0
0
0
0
0
0
0
0
0
0
0
0
0
0
0
0
0
0
0
0
0
0
0
0
0
0
0
0
0
0
0
0
0
0
0
0
0
0
0
0
0
0
0
0
0
0
0
0
0
0
0
0
0
0
0
0
0
0
0
0
0
0
0
0
0
0
0
0
0
0
0
0
0
0
0
0
0
0
0
0
0
0
0
0
0
0
0
0
0
0
0
0
0
0
0
0
0
0
0
0
0
0
0
0
0
0
0
0
0
0
0
0
0
0
0
0
0
0
0
0
0
0
0
0
0
0
0
0
0
0
0
0
0
0
0
0
0
0
0
0
0
0
0
0
0
0
0
0
0
0
0
0
0
0
0
0
0
0
0
0
0
0
0
0
0
0
0
0
0
0
0
0
0
0
0
0
0
0
0
0
0
0
0
0
0
0
0
0
0
0
0
0
0
0
0
0
0
0
0
0
0
0
0
0
0
0
0
0
0
0
0
0
0
0
0
0
0
0
0
0
0
0
0
0
0
0
0
0
0
0
0
0
0
0
0
0
0
0
0
0
0
0
0
0
0
0
0
0
0
0
0
0
0
0
0
0
0
0
0
0
0
0
0
0
0
0
0
0
0
0
0
0
0
0
0
0
0
0
0
0
0
0
0
0
0
0
0
0
0
0
0
0
0
0
0
0
0
0
0
0
0
0
0
0
0
0
0
0
0
0
0
0
0
0
0
0
0
0
0
0
0
0
0
0
0
0
0
0
0
0
0
0
0
0
0
0
0
0
0
0
0
0
0
0
0
0
0
0
0
0
0
0
0
0
0
0
0
0
0
0
0
0
0
0
0
0
0
0
0
0
0
0
0
0
0
0.0776415
0.052903
0.0436505
0.0357426
0.03048
0.0271088
0.0248019
0.023116
0.0218008
0.0207277
0.0198235
0.0190436
0.0183596
0.0177519
0.0172066
0.0167134
0.0162643
0.0158532
0.0154749
0.0151254
0.0148012
0.0144993
0.0142174
0.0139533
0.0137051
0.0134714
0.0132506
0.0130416
0.0128434
0.0126549
0.0124753
0.012304
0.0121401
0.0119833
0.0118328
0.0116884
0.0115494
0.0114156
0.0112866
0.0111621
0.0110418
0.0109254
0.0108127
0.0107036
0.0105977
0.010495
0.0103952
0.0102981
0.0102038
0.010112
0.0100226
0.00993557
0.00985079
0.00976825
0.00968791
0.00960979
0.00953392
0.00946036
0.00938922
0.00932056
0.00925448
0.00919102
0.00913013
0.00907166
0.00901529
0.0089605
0.00890648
0.00885217
0.00879625
0.00873714
0.00867315
0.00860259
0.00852406
0.00843664
0.00834031
0.00823632
0.00812746
0.00801847
0.00791612
0.00782919
0.00776821
0.00774478
0.00777059
0.00785611
0.00800891
0.00823186
0.00852117
0.00886461
0.00924003
0.00961429
0.00994313
0.0101719
0.0102377
0.0100733
0.00961278
0.00880071
0.00760109
0.00600741
0.00405701
0.00184401
-0.000471113
-0.00266376
-0.00446705
-0.00560574
-0.00583216
-0.00495419
-0.00285625
0.000494721
0.00505872
0.0107307
0.0173598
0.0247645
0.0327482
0.0411112
0.0496487
0.0581466
0.066411
0.0742601
0.0814806
0.0878325
0.0931181
0.0972328
0.100141
0.101823
0.102262
0.101464
0.0994829
0.0964235
0.0924312
0.0876777
0.0823485
0.0766318
0.0707079
0.064739
0.0588628
0.0531885
0.0477969
0.0427431
0.0380599
0.033762
0.0298501
0.0263145
0.0231382
0.0202994
0.0177737
0.0155351
0.0135577
0.0118159
0.0102857
0.00894421
0.00777045
0.00674515
0.00585084
0.00507179
0.0043939
0.00380463
0.00329283
0.00284866
0.00246346
0.00212959
0.00184038
0.00158997
0.00137326
0.00118578
0.00102366
0.000883497
0.000762368
0.000657714
0.000567318
0.000489256
0.000421861
0.000363688
0.000313485
0.000270169
0.000232801
0.000200571
0.000172777
0.000148813
0.000128153
0.000110346
9.49998e-05
8.17761e-05
7.03831e-05
6.05688e-05
5.21158e-05
4.48362e-05
3.85681e-05
3.31716e-05
2.85262e-05
2.4528e-05
2.10872e-05
1.81265e-05
1.55793e-05
1.33882e-05
1.15036e-05
9.88284e-06
8.48924e-06
7.29111e-06
6.26117e-06
5.37593e-06
4.61517e-06
3.96149e-06
3.39988e-06
2.91745e-06
2.5031e-06
2.14727e-06
1.84173e-06
1.57943e-06
1.35427e-06
1.16103e-06
9.95198e-07
8.52916e-07
7.30858e-07
6.26164e-07
5.36378e-07
4.59389e-07
3.93385e-07
3.36806e-07
2.88316e-07
2.46763e-07
2.11162e-07
1.80665e-07
1.54545e-07
1.32177e-07
1.13026e-07
9.66308e-08
8.25983e-08
7.05896e-08
6.03145e-08
5.15244e-08
4.4006e-08
3.75765e-08
3.2079e-08
2.73795e-08
2.33631e-08
1.99319e-08
1.70022e-08
1.45023e-08
1.23704e-08
1.05531e-08
9.00404e-09
7.68299e-09
6.55573e-09
5.59332e-09
4.77131e-09
4.06859e-09
3.46618e-09
2.94635e-09
2.49289e-09
2.0923e-09
1.73585e-09
1.42129e-09
1.15317e-09
9.40725e-10
7.93402e-10
7.14891e-10
6.97792e-10
7.21122e-10
7.52353e-10
7.54256e-10
6.95018e-10
5.58642e-10
3.52034e-10
1.05872e-10
-1.31826e-10
-3.08179e-10
-3.80555e-10
-3.29777e-10
-1.67247e-10
6.64997e-11
3.11677e-10
5.04858e-10
5.95817e-10
5.60763e-10
4.08213e-10
1.7602e-10
-7.93604e-11
-2.9808e-10
-4.32228e-10
-4.57125e-10
-3.7585e-10
-2.16315e-10
-2.22945e-11
1.58689e-10
2.87188e-10
3.40353e-10
3.15391e-10
2.27701e-10
1.04852e-10
-2.1531e-11
-1.23675e-10
-1.8346e-10
-1.95026e-10
-1.64082e-10
-1.04648e-10
-3.44342e-11
2.97819e-11
7.5701e-11
9.73502e-11
9.51329e-11
7.44374e-11
4.34203e-11
1.06486e-11
-1.68341e-11
-3.46737e-11
-4.15171e-11
-3.85973e-11
-2.88564e-11
-1.59128e-11
-3.13669e-12
6.98853e-12
1.3154e-11
1.51897e-11
1.37982e-11
1.01766e-11
5.63801e-12
1.3128e-12
-2.02839e-12
-4.02765e-12
-4.6928e-12
-4.28926e-12
-3.21126e-12
-1.86533e-12
-5.86391e-13
4.06177e-13
1.01578e-12
1.2491e-12
1.18217e-12
9.23563e-13
5.82928e-13
2.49599e-13
-1.78612e-14
-1.92629e-13
-2.74105e-13
-2.79178e-13
-2.33079e-13
-1.61774e-13
-8.68411e-14
-2.29715e-14
2.23416e-14
4.76402e-14
5.56131e-14
5.1107e-14
3.9453e-14
2.53136e-14
1.20777e-14
1.71627e-15
-5.04619e-15
-8.39422e-15
-9.04468e-15
-7.91553e-15
-5.88464e-15
-3.64869e-15
-1.66963e-15
-1.84345e-16
7.48847e-16
1.19001e-15
1.26008e-15
1.09537e-15
8.17663e-16
5.18867e-16
2.57211e-16
6.09018e-17
-6.44317e-17
-1.27415e-16
-1.43555e-16
-1.29735e-16
-1.00772e-16
-6.77723e-17
-3.78217e-17
-1.4496e-17
1.24508e-18
1.00998e-17
1.35955e-17
1.34771e-17
1.1323e-17
8.35649e-18
5.399e-18
2.91122e-18
1.07625e-18
-1.07741e-19
-7.4532e-19
-9.81154e-19
-9.58781e-19
-7.98033e-19
-5.86499e-19
-3.80095e-19
-2.08519e-19
-8.24736e-20
-6.44683e-22
4.4574e-20
6.29863e-20
6.40356e-20
5.54888e-20
4.29992e-20
3.0208e-20
1.91162e-20
1.05415e-20
4.54586e-21
7.80423e-22
-1.2686e-21
-2.1246e-21
-2.23747e-21
-1.95115e-21
-1.50294e-21
-1.03927e-21
-6.37717e-22
-3.28744e-22
-1.14098e-22
1.9454e-23
9.08153e-23
1.18957e-22
1.2005e-22
1.06432e-22
8.66494e-23
6.60569e-23
4.75863e-23
3.25015e-23
2.10248e-23
1.28087e-23
7.25739e-24
3.72666e-24
1.63283e-24
4.99703e-25
-3.21045e-26
-2.16309e-25
-2.20792e-25
-1.49047e-25
-5.94728e-26
1.90607e-26
7.56217e-26
1.0917e-25
1.23343e-25
1.23337e-25
1.14222e-25
1.0018e-25
8.42905e-26
6.85964e-26
5.4297e-26
4.1971e-26
3.17779e-26
2.36217e-26
1.72705e-26
1.24379e-26
8.83422e-27
6.19458e-27
4.29192e-27
2.94042e-27
1.99325e-27
1.33767e-27
8.89173e-28
5.85682e-28
3.82424e-28
2.4762e-28
1.59045e-28
1.01361e-28
6.41144e-29
4.02599e-29
2.51026e-29
1.55446e-29
9.56174e-30
5.8434e-30
3.54843e-30
2.14147e-30
1.28456e-30
7.65983e-31
4.54111e-31
2.6769e-31
1.5692e-31
9.14834e-32
5.30481e-32
3.05985e-32
1.75579e-32
1.00235e-32
5.69354e-33
3.21802e-33
1.80998e-33
1.01313e-33
5.64408e-34
3.12958e-34
1.7273e-34
9.49006e-35
5.19052e-35
2.82629e-35
1.53219e-35
8.2702e-36
4.4448e-36
2.3787e-36
1.26765e-36
6.72744e-37
3.55558e-37
1.87153e-37
9.8114e-38
5.12302e-38
2.6644e-38
1.38028e-38
7.12272e-39
3.66142e-39
1.87496e-39
9.56511e-40
4.86133e-40
2.46152e-40
1.24178e-40
6.24158e-41
3.12583e-41
1.55979e-41
7.75559e-42
3.84254e-42
1.8971e-42
9.33341e-43
4.57594e-43
2.23574e-43
1.08861e-43
5.28258e-44
2.55476e-44
1.23139e-44
5.9155e-45
2.83235e-45
1.35168e-45
6.4295e-46
3.04838e-46
1.44064e-46
6.78653e-47
3.18679e-47
1.49169e-47
6.96042e-48
3.23764e-48
1.5013e-48
6.93999e-49
3.19824e-49
1.46937e-49
6.73017e-50
3.07329e-50
1.39917e-50
6.35088e-51
2.87409e-51
1.29681e-51
5.83407e-52
2.61691e-52
1.1704e-52
5.21937e-53
2.32083e-53
1.029e-53
4.5493e-54
2.00555e-54
8.81634e-55
3.8647e-55
1.68936e-55
7.36394e-56
3.20102e-56
1.38759e-56
5.9984e-57
2.58592e-57
1.11174e-57
4.76662e-58
2.03816e-58
8.69144e-59
3.69639e-59
1.56783e-59
6.63227e-60
2.79815e-60
1.17742e-60
4.94137e-61
2.06835e-61
8.63506e-62
3.59564e-62
1.49335e-62
6.18621e-63
2.55606e-63
1.05343e-63
4.33043e-64
1.77563e-64
7.26232e-65
2.96279e-65
1.20569e-65
4.89422e-66
1.98175e-66
8.00447e-67
3.22509e-67
1.29622e-67
5.19697e-68
2.07853e-68
8.29285e-69
3.30061e-69
1.31049e-69
5.19065e-70
2.051e-70
8.08479e-71
3.17932e-71
1.24728e-71
4.88162e-72
1.90606e-72
7.42481e-73
2.88545e-73
1.11873e-73
4.32735e-74
1.66997e-74
6.42967e-75
2.46981e-75
9.46541e-76
3.61924e-76
1.38071e-76
5.25526e-77
1.99571e-77
7.56168e-78
2.85862e-78
1.07824e-78
4.05788e-79
1.52374e-79
5.70888e-80
2.13415e-80
7.96041e-81
2.96268e-81
1.10021e-81
4.07672e-82
1.50728e-82
5.56068e-83
2.04699e-83
7.51895e-84
2.75587e-84
1.00791e-84
3.6783e-85
1.33949e-85
4.86746e-86
1.76497e-86
6.38624e-87
2.30585e-87
8.308e-88
2.98706e-88
1.07171e-88
3.83704e-89
1.3709e-89
4.88774e-90
1.73902e-90
6.17445e-91
2.18772e-91
7.73546e-92
2.72952e-92
9.61152e-93
3.37759e-93
1.1845e-93
4.14547e-94
1.44787e-94
5.04667e-95
1.7555e-95
6.09422e-96
2.11136e-96
7.30015e-97
2.51902e-97
8.67488e-98
2.98146e-98
1.02266e-98
3.50082e-99
1.19605e-99
4.07824e-100
1.38784e-100
4.71361e-101
1.59778e-101
5.40542e-102
1.82514e-102
6.15058e-103
2.06868e-103
6.94434e-104
2.32664e-104
7.78017e-105
2.59666e-105
8.64982e-106
2.87586e-106
9.54334e-107
3.16086e-107
1.04492e-107
3.44778e-108
1.13547e-108
3.7324e-109
1.22457e-109
4.01019e-110
1.31078e-110
4.27647e-111
1.39261e-111
4.52651e-112
1.46856e-112
4.75569e-113
1.53721e-113
4.95965e-114
1.59724e-114
5.1344e-115
1.64745e-115
5.27646e-116
1.68686e-116
5.383e-117
1.71467e-117
5.45191e-118
1.73034e-118
5.48186e-119
1.73358e-119
5.47239e-120
1.72437e-120
5.42386e-121
1.70298e-121
5.33746e-122
1.66989e-122
5.21519e-123
1.62586e-123
5.05971e-124
1.57182e-124
4.87434e-125
1.50891e-125
4.66285e-126
1.4384e-126
4.42941e-127
1.36162e-127
4.17841e-128
1.28001e-128
3.91435e-129
1.19497e-129
3.64169e-130
1.1079e-130
3.36474e-131
1.02014e-131
3.08759e-132
9.3291e-133
2.81396e-133
8.4734e-134
2.54717e-134
7.64403e-135
2.29008e-135
6.8493e-136
2.04507e-136
6.09592e-137
1.81401e-137
5.38907e-138
1.5983e-138
4.73238e-139
1.39886e-139
4.12808e-140
1.21619e-140
3.5771e-141
1.05037e-141
3.0792e-142
9.01189e-143
2.63317e-143
7.68119e-144
2.237e-144
6.50417e-145
1.88803e-145
5.47162e-146
1.58313e-146
4.57311e-147
1.31887e-147
3.79741e-148
1.09162e-148
3.13297e-149
8.97717e-150
2.56817e-150
7.33521e-151
2.09172e-151
5.95527e-152
1.6928e-152
4.80414e-153
1.36124e-153
3.85093e-154
1.0877e-154
3.06733e-155
8.6363e-156
2.42778e-156
6.81409e-157
1.90951e-157
5.34264e-158
1.49248e-158
4.16276e-159
1.15925e-159
3.22325e-160
8.9482e-161
2.48029e-161
6.86429e-162
1.89678e-162
5.23317e-163
1.4416e-163
3.96508e-164
1.08891e-164
2.98584e-165
8.17476e-166
2.23469e-166
6.09953e-167
1.66231e-167
4.52342e-168
1.22903e-168
3.33423e-169
9.03174e-170
2.44281e-170
6.59708e-171
1.77893e-171
4.78973e-172
1.28769e-172
3.45666e-173
9.26514e-174
2.47969e-174
6.62665e-175
1.76824e-175
4.71133e-176
1.25343e-176
3.32973e-177
8.83231e-178
2.33936e-178
6.18697e-179
1.63387e-179
4.30841e-180
1.13443e-180
2.98263e-181
7.83041e-182
2.05274e-182
5.37337e-183
1.40451e-183
3.66583e-184
9.55401e-185
2.48638e-185
6.4613e-186
1.67665e-186
4.34446e-187
1.12409e-187
2.9043e-188
7.49299e-189
1.93038e-189
4.96602e-190
1.27571e-190
3.27243e-191
8.38242e-192
2.14411e-192
5.47655e-193
1.39684e-193
3.55771e-194
9.04852e-195
2.2981e-195
5.82834e-196
1.47607e-196
3.73298e-197
9.42742e-198
2.37749e-198
5.98733e-199
1.5057e-199
3.78125e-200
9.48255e-201
2.37469e-201
5.93859e-202
1.48304e-202
3.69845e-203
9.2105e-204
2.29057e-204
5.68855e-205
1.41078e-205
3.49394e-206
8.6412e-207
2.13419e-207
5.26374e-208
1.29646e-208
3.18881e-209
7.83253e-210
1.92124e-210
4.70616e-211
1.15122e-211
2.8123e-212
6.86074e-213
1.67144e-213
4.0665e-214
9.88011e-215
2.39726e-215
5.80873e-216
1.4056e-216
3.39669e-217
8.19719e-218
1.97556e-218
4.75481e-219
1.14286e-219
2.74329e-220
6.57611e-221
1.5743e-221
3.76378e-222
8.98636e-223
2.14272e-223
5.10235e-224
1.21338e-224
2.88171e-225
6.83485e-226
1.61895e-226
3.82969e-227
9.04736e-228
2.13456e-228
5.02948e-229
1.1835e-229
2.78127e-230
6.52755e-231
1.52999e-231
3.58146e-232
8.37267e-233
1.9548e-233
4.55801e-234
1.06141e-234
2.46848e-235
5.73338e-236
1.32994e-236
3.08098e-237
7.12829e-238
1.64711e-238
3.80101e-239
8.76028e-240
2.01641e-240
4.63533e-241
1.06421e-241
2.44015e-242
5.58794e-243
1.278e-243
2.91916e-244
6.65934e-245
1.51723e-245
3.45239e-246
7.8458e-247
1.78075e-247
4.03664e-248
9.13877e-249
2.06636e-249
4.66635e-250
1.05245e-250
2.37071e-251
5.33347e-252
1.19839e-252
2.68929e-253
6.02748e-254
1.34924e-254
3.01649e-255
6.73554e-256
1.50211e-256
3.34571e-257
7.44281e-258
1.65366e-258
3.66957e-259
8.13293e-260
1.80029e-260
3.98015e-261
8.78861e-262
1.93823e-262
4.2693e-263
9.39234e-264
2.06375e-264
4.52904e-265
9.92714e-266
2.17325e-266
4.75187e-267
1.03774e-267
2.26351e-268
4.93114e-269
1.07296e-269
2.3318e-270
5.06141e-271
1.0973e-271
2.37603e-272
5.1387e-273
1.11002e-273
2.39487e-274
5.16072e-275
1.11075e-275
2.3878e-276
5.12693e-277
1.0995e-277
2.35512e-278
5.03861e-279
1.07668e-279
2.29798e-280
4.89877e-281
1.04306e-281
2.21826e-282
4.71195e-283
9.99706e-284
2.1185e-284
4.48403e-285
9.47971e-286
2.00174e-286
4.22188e-287
8.89389e-288
1.8714e-288
3.93303e-289
8.25617e-290
1.73109e-290
3.62534e-291
7.58351e-292
1.58446e-292
3.30663e-293
6.89258e-294
1.43506e-294
2.98437e-295
6.1991e-296
1.28617e-296
2.66541e-297
5.51728e-298
1.14073e-298
2.35579e-299
4.85944e-300
1.00123e-300
2.06054e-301
4.23572e-302
8.69704e-303
1.78368e-303
3.65394e-304
7.47664e-305
1.52811e-305
3.11963e-306
6.36143e-307
1.29571e-307
2.63613e-308
5.3571e-309
1.08742e-309
2.2048e-310
4.46526e-311
9.03296e-312
1.82524e-312
3.68399e-313
7.42717e-314
1.49567e-314
3.00856e-315
6.04491e-316
1.2132e-316
2.43211e-317
4.87018e-318
9.74134e-319
1.94632e-319
3.88434e-320
7.74695e-321
1.54148e-321
3.0138e-322
5.43472e-323
4.94066e-324
0
0
0
0
0
0
0
0
0
0
0
0
0
0
0
0
0
0
0
0
0
0
0
0
0
0
0
0
0
0
0
0
0
0
0
0
0
0
0
0
0
0
0
0
0
0
0
0
0
0
0
0
0
0
0
0
0
0
0
0
0
0
0
0
0
0
0
0
0
0
0
0
0
0
0
0
0
0
0
0
0
0
0
0
0
0
0
0
0
0
0
0
0
0
0
0
0
0
0
0
0
0
0
0
0
0
0
0
0
0
0
0
0
0
0
0
0
0
0
0
0
0
0
0
0
0
0
0
0
0
0
0
0
0
0
0
0
0
0
0
0
0
0
0
0
0
0
0
0
0
0
0
0
0
0
0
0
0
0
0
0
0
0
0
0
0
0
0
0
0
0
0
0
0
0
0
0
0
0
0
0
0
0
0
0
0
0
0
0
0
0
0
0
0
0
0
0
0
0
0
0
0
0
0
0
0
0
0
0
0
0
0
0
0
0
0
0
0
0
0
0
0
0
0
0
0
0
0
0
0
0
0
0
0
0
0
0
0
0
0
0
0
0
0
0
0
0
0
0
0
0
0
0
0
0
0
0
0
0
0
0
0
0
0
0
0
0
0
0
0
0
0
0
0
0
0
0
0
0
0
0
0
0
0
0
0
0
0
0
0
0
0
0
0
0
0
0
0
0
0
0
0
0
0
0
0
0
0
0
0
0
0
0
0
0
0
0
0
0
0
0
0
0
0
0
0
0
0
0
0
0
0
0
0
0
0
0
0
0
0
0
0
0
0
0
0
0
0
0
0
0
0
0
0
0
0
0
0
0
0
0
0
0
0
0
0
0
0
0
0
0
0
0
0
0
0
0
0
0
0
0
0
0
0
0
0
0
0
0
0
0
0
0
0
0
0
0
0
0
0
0
0
0
0
0
0
0
0
0
0
0
0
0
0
0
0
0
0
0
0
0
0
0
0
0
0
0
0
0
0
0
0
0
0
0
0
0
0
0
0
0
0
0
0
0
0
0
0
0
0
0
0
0
0
0
0
0
0
0
0
0
0
0
0
0
0
0
0
0
0
0
0
0
0
0
0
0
0
0
0
0
0
0
0
0
0
0
0
0
0
0
0
0
0
0
0
0
0
0
0
0
0
0
0
0
0
0
0
0
0
0
0
0
0
0
0
0
0
0
0
0
0
0
0
0
0
0
0
0
0
0
0
0
0
0
0
0
0
0
0
0
0
0
0
0
0
0
0
0
0
0
0
0
0
0
0
0
0
0
0
0
0
0
0
0
0
0
0
0
0
0
0
0.062787
0.0345542
0.0299574
0.025277
0.0221391
0.0200069
0.0184495
0.0172639
0.0163155
0.0155312
0.0148652
0.0142884
0.013781
0.0133294
0.0129237
0.0125563
0.0122216
0.0119149
0.0116326
0.0113716
0.0111293
0.0109037
0.0106929
0.0104953
0.0103096
0.0101346
0.00996925
0.00981273
0.0096642
0.00952296
0.0093884
0.00925997
0.00913718
0.00901959
0.00890681
0.00879848
0.00869429
0.00859396
0.00849723
0.00840385
0.00831363
0.00822637
0.00814188
0.00806001
0.00798062
0.00790356
0.00782871
0.00775596
0.0076852
0.00761634
0.00754929
0.007484
0.0074204
0.00735846
0.00729817
0.00723952
0.00718256
0.00712732
0.00707388
0.0070223
0.00697265
0.00692498
0.00687926
0.00683541
0.0067932
0.00675226
0.00671203
0.00667171
0.00663034
0.00658673
0.0065396
0.00648764
0.00642972
0.00636504
0.00629344
0.00621567
0.00613362
0.00605063
0.00597157
0.00590291
0.00585245
0.00582899
0.00584152
0.0058983
0.00600563
0.00616641
0.00637875
0.00663453
0.00691825
0.0072062
0.00746628
0.00765845
0.00773614
0.00764883
0.0073461
0.00678361
0.00592985
0.00477294
0.00333129
0.00166487
-0.000116258
-0.00184902
-0.00332984
-0.00434087
-0.00467952
-0.00418378
-0.00275122
-0.000350298
0.00298659
0.0071717
0.0120761
0.0175427
0.0234002
0.0294768
0.0355973
0.0415886
0.0472997
0.0526018
0.0573628
0.0614499
0.0647677
0.0672839
0.0690093
0.0699628
0.0701605
0.0696254
0.0683984
0.0665391
0.0641207
0.0612255
0.0579425
0.054366
0.0505924
0.0467169
0.0428277
0.0390023
0.0353044
0.0317831
0.0284732
0.0253967
0.0225646
0.0199792
0.017636
0.0155257
0.0136352
0.0119498
0.0104533
0.00912919
0.0079613
0.00693396
0.00603238
0.00524279
0.00455253
0.00395004
0.00342489
0.0029677
0.00257011
0.00222466
0.00192478
0.00166464
0.00143912
0.00124373
0.00107453
0.000928088
0.000801387
0.000691812
0.00059708
0.000515207
0.000444469
0.000383367
0.000330604
0.00028505
0.000245731
0.0002118
0.000182524
0.00015727
0.000135489
0.000116707
0.000100513
8.65538e-05
7.45222e-05
6.41538e-05
5.522e-05
4.75236e-05
4.08941e-05
3.51845e-05
3.02678e-05
2.60345e-05
2.23901e-05
1.92532e-05
1.65535e-05
1.42303e-05
1.22314e-05
1.05119e-05
9.03277e-06
7.76068e-06
6.66678e-06
5.72625e-06
4.9177e-06
4.22269e-06
3.62538e-06
3.11211e-06
2.6711e-06
2.29224e-06
1.96682e-06
1.68735e-06
1.44736e-06
1.24132e-06
1.06444e-06
9.12616e-07
7.82326e-07
6.70529e-07
5.74615e-07
4.9234e-07
4.21776e-07
3.61265e-07
3.09384e-07
2.64908e-07
2.26787e-07
1.94118e-07
1.66126e-07
1.42145e-07
1.21604e-07
1.04013e-07
8.89505e-08
7.6055e-08
6.50166e-08
5.55694e-08
4.74854e-08
4.05691e-08
3.46529e-08
2.9593e-08
2.52662e-08
2.15668e-08
1.84045e-08
1.57021e-08
1.3394e-08
1.14239e-08
9.74359e-09
8.31147e-09
7.09119e-09
6.05118e-09
5.16427e-09
4.4075e-09
3.76169e-09
3.21059e-09
2.73982e-09
2.33574e-09
1.9851e-09
1.67563e-09
1.39771e-09
1.14645e-09
9.23219e-10
7.35301e-10
5.93312e-10
5.06414e-10
4.76759e-10
4.95149e-10
5.3993e-10
5.80274e-10
5.83564e-10
5.24947e-10
3.96072e-10
2.09837e-10
-9.51558e-13
-1.9129e-10
-3.16172e-10
-3.43773e-10
-2.65564e-10
-1.00098e-10
1.10934e-10
3.13398e-10
4.55108e-10
4.99732e-10
4.36218e-10
2.81153e-10
7.35852e-11
-1.35946e-10
-2.98885e-10
-3.80831e-10
-3.69199e-10
-2.74683e-10