# vtk DataFile Version 2.0
FlowField
ASCII
DATASET STRUCTURED_GRID
DIMENSIONS 1602 1 52
POINTS 83304 float
0 0 0
0.1 0 0
0.2 0 0
0.3 0 0
0.4 0 0
0.5 0 0
0.6 0 0
0.7 0 0
0.8 0 0
0.9 0 0
1 0 0
1.1 0 0
1.2 0 0
1.3 0 0
1.4 0 0
1.5 0 0
1.6 0 0
1.7 0 0
1.8 0 0
1.9 0 0
2 0 0
2.1 0 0
2.2 0 0
2.3 0 0
2.4 0 0
2.5 0 0
2.6 0 0
2.7 0 0
2.8 0 0
2.9 0 0
3 0 0
3.1 0 0
3.2 0 0
3.3 0 0
3.4 0 0
3.5 0 0
3.6 0 0
3.7 0 0
3.8 0 0
3.9 0 0
4 0 0
4.1 0 0
4.2 0 0
4.3 0 0
4.4 0 0
4.5 0 0
4.6 0 0
4.7 0 0
4.8 0 0
4.9 0 0
5 0 0
5.1 0 0
5.2 0 0
5.3 0 0
5.4 0 0
5.5 0 0
5.6 0 0
5.7 0 0
5.8 0 0
5.9 0 0
6 0 0
6.1 0 0
6.2 0 0
6.3 0 0
6.4 0 0
6.5 0 0
6.6 0 0
6.7 0 0
6.8 0 0
6.9 0 0
7 0 0
7.1 0 0
7.2 0 0
7.3 0 0
7.4 0 0
7.5 0 0
7.6 0 0
7.7 0 0
7.8 0 0
7.9 0 0
8 0 0
8.1 0 0
8.2 0 0
8.3 0 0
8.4 0 0
8.5 0 0
8.6 0 0
8.7 0 0
8.8 0 0
8.9 0 0
9 0 0
9.1 0 0
9.2 0 0
9.3 0 0
9.4 0 0
9.5 0 0
9.6 0 0
9.7 0 0
9.8 0 0
9.9 0 0
10 0 0
10.1 0 0
10.2 0 0
10.3 0 0
10.4 0 0
10.5 0 0
10.6 0 0
10.7 0 0
10.8 0 0
10.9 0 0
11 0 0
11.1 0 0
11.2 0 0
11.3 0 0
11.4 0 0
11.5 0 0
11.6 0 0
11.7 0 0
11.8 0 0
11.9 0 0
12 0 0
12.1 0 0
12.2 0 0
12.3 0 0
12.4 0 0
12.5 0 0
12.6 0 0
12.7 0 0
12.8 0 0
12.9 0 0
13 0 0
13.1 0 0
13.2 0 0
13.3 0 0
13.4 0 0
13.5 0 0
13.6 0 0
13.7 0 0
13.8 0 0
13.9 0 0
14 0 0
14.1 0 0
14.2 0 0
14.3 0 0
14.4 0 0
14.5 0 0
14.6 0 0
14.7 0 0
14.8 0 0
14.9 0 0
15 0 0
15.1 0 0
15.2 0 0
15.3 0 0
15.4 0 0
15.5 0 0
15.6 0 0
15.7 0 0
15.8 0 0
15.9 0 0
16 0 0
16.1 0 0
16.2 0 0
16.3 0 0
16.4 0 0
16.5 0 0
16.6 0 0
16.7 0 0
16.8 0 0
16.9 0 0
17 0 0
17.1 0 0
17.2 0 0
17.3 0 0
17.4 0 0
17.5 0 0
17.6 0 0
17.7 0 0
17.8 0 0
17.9 0 0
18 0 0
18.1 0 0
18.2 0 0
18.3 0 0
18.4 0 0
18.5 0 0
18.6 0 0
18.7 0 0
18.8 0 0
18.9 0 0
19 0 0
19.1 0 0
19.2 0 0
19.3 0 0
19.4 0 0
19.5 0 0
19.6 0 0
19.7 0 0
19.8 0 0
19.9 0 0
20 0 0
20.1 0 0
20.2 0 0
20.3 0 0
20.4 0 0
20.5 0 0
20.6 0 0
20.7 0 0
20.8 0 0
20.9 0 0
21 0 0
21.1 0 0
21.2 0 0
21.3 0 0
21.4 0 0
21.5 0 0
21.6 0 0
21.7 0 0
21.8 0 0
21.9 0 0
22 0 0
22.1 0 0
22.2 0 0
22.3 0 0
22.4 0 0
22.5 0 0
22.6 0 0
22.7 0 0
22.8 0 0
22.9 0 0
23 0 0
23.1 0 0
23.2 0 0
23.3 0 0
23.4 0 0
23.5 0 0
23.6 0 0
23.7 0 0
23.8 0 0
23.9 0 0
24 0 0
24.1 0 0
24.2 0 0
24.3 0 0
24.4 0 0
24.5 0 0
24.6 0 0
24.7 0 0
24.8 0 0
24.9 0 0
25 0 0
25.1 0 0
25.2 0 0
25.3 0 0
25.4 0 0
25.5 0 0
25.6 0 0
25.7 0 0
25.8 0 0
25.9 0 0
26 0 0
26.1 0 0
26.2 0 0
26.3 0 0
26.4 0 0
26.5 0 0
26.6 0 0
26.7 0 0
26.8 0 0
26.9 0 0
27 0 0
27.1 0 0
27.2 0 0
27.3 0 0
27.4 0 0
27.5 0 0
27.6 0 0
27.7 0 0
27.8 0 0
27.9 0 0
28 0 0
28.1 0 0
28.2 0 0
28.3 0 0
28.4 0 0
28.5 0 0
28.6 0 0
28.7 0 0
28.8 0 0
28.9 0 0
29 0 0
29.1 0 0
29.2 0 0
29.3 0 0
29.4 0 0
29.5 0 0
29.6 0 0
29.7 0 0
29.8 0 0
29.9 0 0
30 0 0
30.1 0 0
30.2 0 0
30.3 0 0
30.4 0 0
30.5 0 0
30.6 0 0
30.7 0 0
30.8 0 0
30.9 0 0
31 0 0
31.1 0 0
31.2 0 0
31.3 0 0
31.4 0 0
31.5 0 0
31.6 0 0
31.7 0 0
31.8 0 0
31.9 0 0
32 0 0
32.1 0 0
32.2 0 0
32.3 0 0
32.4 0 0
32.5 0 0
32.6 0 0
32.7 0 0
32.8 0 0
32.9 0 0
33 0 0
33.1 0 0
33.2 0 0
33.3 0 0
33.4 0 0
33.5 0 0
33.6 0 0
33.7 0 0
33.8 0 0
33.9 0 0
34 0 0
34.1 0 0
34.2 0 0
34.3 0 0
34.4 0 0
34.5 0 0
34.6 0 0
34.7 0 0
34.8 0 0
34.9 0 0
35 0 0
35.1 0 0
35.2 0 0
35.3 0 0
35.4 0 0
35.5 0 0
35.6 0 0
35.7 0 0
35.8 0 0
35.9 0 0
36 0 0
36.1 0 0
36.2 0 0
36.3 0 0
36.4 0 0
36.5 0 0
36.6 0 0
36.7 0 0
36.8 0 0
36.9 0 0
37 0 0
37.1 0 0
37.2 0 0
37.3 0 0
37.4 0 0
37.5 0 0
37.6 0 0
37.7 0 0
37.8 0 0
37.9 0 0
38 0 0
38.1 0 0
38.2 0 0
38.3 0 0
38.4 0 0
38.5 0 0
38.6 0 0
38.7 0 0
38.8 0 0
38.9 0 0
39 0 0
39.1 0 0
39.2 0 0
39.3 0 0
39.4 0 0
39.5 0 0
39.6 0 0
39.7 0 0
39.8 0 0
39.9 0 0
40 0 0
40.1 0 0
40.2 0 0
40.3 0 0
40.4 0 0
40.5 0 0
40.6 0 0
40.7 0 0
40.8 0 0
40.9 0 0
41 0 0
41.1 0 0
41.2 0 0
41.3 0 0
41.4 0 0
41.5 0 0
41.6 0 0
41.7 0 0
41.8 0 0
41.9 0 0
42 0 0
42.1 0 0
42.2 0 0
42.3 0 0
42.4 0 0
42.5 0 0
42.6 0 0
42.7 0 0
42.8 0 0
42.9 0 0
43 0 0
43.1 0 0
43.2 0 0
43.3 0 0
43.4 0 0
43.5 0 0
43.6 0 0
43.7 0 0
43.8 0 0
43.9 0 0
44 0 0
44.1 0 0
44.2 0 0
44.3 0 0
44.4 0 0
44.5 0 0
44.6 0 0
44.7 0 0
44.8 0 0
44.9 0 0
45 0 0
45.1 0 0
45.2 0 0
45.3 0 0
45.4 0 0
45.5 0 0
45.6 0 0
45.7 0 0
45.8 0 0
45.9 0 0
46 0 0
46.1 0 0
46.2 0 0
46.3 0 0
46.4 0 0
46.5 0 0
46.6 0 0
46.7 0 0
46.8 0 0
46.9 0 0
47 0 0
47.1 0 0
47.2 0 0
47.3 0 0
47.4 0 0
47.5 0 0
47.6 0 0
47.7 0 0
47.8 0 0
47.9 0 0
48 0 0
48.1 0 0
48.2 0 0
48.3 0 0
48.4 0 0
48.5 0 0
48.6 0 0
48.7 0 0
48.8 0 0
48.9 0 0
49 0 0
49.1 0 0
49.2 0 0
49.3 0 0
49.4 0 0
49.5 0 0
49.6 0 0
49.7 0 0
49.8 0 0
49.9 0 0
50 0 0
50.1 0 0
50.2 0 0
50.3 0 0
50.4 0 0
50.5 0 0
50.6 0 0
50.7 0 0
50.8 0 0
50.9 0 0
51 0 0
51.1 0 0
51.2 0 0
51.3 0 0
51.4 0 0
51.5 0 0
51.6 0 0
51.7 0 0
51.8 0 0
51.9 0 0
52 0 0
52.1 0 0
52.2 0 0
52.3 0 0
52.4 0 0
52.5 0 0
52.6 0 0
52.7 0 0
52.8 0 0
52.9 0 0
53 0 0
53.1 0 0
53.2 0 0
53.3 0 0
53.4 0 0
53.5 0 0
53.6 0 0
53.7 0 0
53.8 0 0
53.9 0 0
54 0 0
54.1 0 0
54.2 0 0
54.3 0 0
54.4 0 0
54.5 0 0
54.6 0 0
54.7 0 0
54.8 0 0
54.9 0 0
55 0 0
55.1 0 0
55.2 0 0
55.3 0 0
55.4 0 0
55.5 0 0
55.6 0 0
55.7 0 0
55.8 0 0
55.9 0 0
56 0 0
56.1 0 0
56.2 0 0
56.3 0 0
56.4 0 0
56.5 0 0
56.6 0 0
56.7 0 0
56.8 0 0
56.9 0 0
57 0 0
57.1 0 0
57.2 0 0
57.3 0 0
57.4 0 0
57.5 0 0
57.6 0 0
57.7 0 0
57.8 0 0
57.9 0 0
58 0 0
58.1 0 0
58.2 0 0
58.3 0 0
58.4 0 0
58.5 0 0
58.6 0 0
58.7 0 0
58.8 0 0
58.9 0 0
59 0 0
59.1 0 0
59.2 0 0
59.3 0 0
59.4 0 0
59.5 0 0
59.6 0 0
59.7 0 0
59.8 0 0
59.9 0 0
60 0 0
60.1 0 0
60.2 0 0
60.3 0 0
60.4 0 0
60.5 0 0
60.6 0 0
60.7 0 0
60.8 0 0
60.9 0 0
61 0 0
61.1 0 0
61.2 0 0
61.3 0 0
61.4 0 0
61.5 0 0
61.6 0 0
61.7 0 0
61.8 0 0
61.9 0 0
62 0 0
62.1 0 0
62.2 0 0
62.3 0 0
62.4 0 0
62.5 0 0
62.6 0 0
62.7 0 0
62.8 0 0
62.9 0 0
63 0 0
63.1 0 0
63.2 0 0
63.3 0 0
63.4 0 0
63.5 0 0
63.6 0 0
63.7 0 0
63.8 0 0
63.9 0 0
64 0 0
64.1 0 0
64.2 0 0
64.3 0 0
64.4 0 0
64.5 0 0
64.6 0 0
64.7 0 0
64.8 0 0
64.9 0 0
65 0 0
65.1 0 0
65.2 0 0
65.3 0 0
65.4 0 0
65.5 0 0
65.6 0 0
65.7 0 0
65.8 0 0
65.9 0 0
66 0 0
66.1 0 0
66.2 0 0
66.3 0 0
66.4 0 0
66.5 0 0
66.6 0 0
66.7 0 0
66.8 0 0
66.9 0 0
67 0 0
67.1 0 0
67.2 0 0
67.3 0 0
67.4 0 0
67.5 0 0
67.6 0 0
67.7 0 0
67.8 0 0
67.9 0 0
68 0 0
68.1 0 0
68.2 0 0
68.3 0 0
68.4 0 0
68.5 0 0
68.6 0 0
68.7 0 0
68.8 0 0
68.9 0 0
69 0 0
69.1 0 0
69.2 0 0
69.3 0 0
69.4 0 0
69.5 0 0
69.6 0 0
69.7 0 0
69.8 0 0
69.9 0 0
70 0 0
70.1 0 0
70.2 0 0
70.3 0 0
70.4 0 0
70.5 0 0
70.6 0 0
70.7 0 0
70.8 0 0
70.9 0 0
71 0 0
71.1 0 0
71.2 0 0
71.3 0 0
71.4 0 0
71.5 0 0
71.6 0 0
71.7 0 0
71.8 0 0
71.9 0 0
72 0 0
72.1 0 0
72.2 0 0
72.3 0 0
72.4 0 0
72.5 0 0
72.6 0 0
72.7 0 0
72.8 0 0
72.9 0 0
73 0 0
73.1 0 0
73.2 0 0
73.3 0 0
73.4 0 0
73.5 0 0
73.6 0 0
73.7 0 0
73.8 0 0
73.9 0 0
74 0 0
74.1 0 0
74.2 0 0
74.3 0 0
74.4 0 0
74.5 0 0
74.6 0 0
74.7 0 0
74.8 0 0
74.9 0 0
75 0 0
75.1 0 0
75.2 0 0
75.3 0 0
75.4 0 0
75.5 0 0
75.6 0 0
75.7 0 0
75.8 0 0
75.9 0 0
76 0 0
76.1 0 0
76.2 0 0
76.3 0 0
76.4 0 0
76.5 0 0
76.6 0 0
76.7 0 0
76.8 0 0
76.9 0 0
77 0 0
77.1 0 0
77.2 0 0
77.3 0 0
77.4 0 0
77.5 0 0
77.6 0 0
77.7 0 0
77.8 0 0
77.9 0 0
78 0 0
78.1 0 0
78.2 0 0
78.3 0 0
78.4 0 0
78.5 0 0
78.6 0 0
78.7 0 0
78.8 0 0
78.9 0 0
79 0 0
79.1 0 0
79.2 0 0
79.3 0 0
79.4 0 0
79.5 0 0
79.6 0 0
79.7 0 0
79.8 0 0
79.9 0 0
80 0 0
80.1 0 0
80.2 0 0
80.3 0 0
80.4 0 0
80.5 0 0
80.6 0 0
80.7 0 0
80.8 0 0
80.9 0 0
81 0 0
81.1 0 0
81.2 0 0
81.3 0 0
81.4 0 0
81.5 0 0
81.6 0 0
81.7 0 0
81.8 0 0
81.9 0 0
82 0 0
82.1 0 0
82.2 0 0
82.3 0 0
82.4 0 0
82.5 0 0
82.6 0 0
82.7 0 0
82.8 0 0
82.9 0 0
83 0 0
83.1 0 0
83.2 0 0
83.3 0 0
83.4 0 0
83.5 0 0
83.6 0 0
83.7 0 0
83.8 0 0
83.9 0 0
84 0 0
84.1 0 0
84.2 0 0
84.3 0 0
84.4 0 0
84.5 0 0
84.6 0 0
84.7 0 0
84.8 0 0
84.9 0 0
85 0 0
85.1 0 0
85.2 0 0
85.3 0 0
85.4 0 0
85.5 0 0
85.6 0 0
85.7 0 0
85.8 0 0
85.9 0 0
86 0 0
86.1 0 0
86.2 0 0
86.3 0 0
86.4 0 0
86.5 0 0
86.6 0 0
86.7 0 0
86.8 0 0
86.9 0 0
87 0 0
87.1 0 0
87.2 0 0
87.3 0 0
87.4 0 0
87.5 0 0
87.6 0 0
87.7 0 0
87.8 0 0
87.9 0 0
88 0 0
88.1 0 0
88.2 0 0
88.3 0 0
88.4 0 0
88.5 0 0
88.6 0 0
88.7 0 0
88.8 0 0
88.9 0 0
89 0 0
89.1 0 0
89.2 0 0
89.3 0 0
89.4 0 0
89.5 0 0
89.6 0 0
89.7 0 0
89.8 0 0
89.9 0 0
90 0 0
90.1 0 0
90.2 0 0
90.3 0 0
90.4 0 0
90.5 0 0
90.6 0 0
90.7 0 0
90.8 0 0
90.9 0 0
91 0 0
91.1 0 0
91.2 0 0
91.3 0 0
91.4 0 0
91.5 0 0
91.6 0 0
91.7 0 0
91.8 0 0
91.9 0 0
92 0 0
92.1 0 0
92.2 0 0
92.3 0 0
92.4 0 0
92.5 0 0
92.6 0 0
92.7 0 0
92.8 0 0
92.9 0 0
93 0 0
93.1 0 0
93.2 0 0
93.3 0 0
93.4 0 0
93.5 0 0
93.6 0 0
93.7 0 0
93.8 0 0
93.9 0 0
94 0 0
94.1 0 0
94.2 0 0
94.3 0 0
94.4 0 0
94.5 0 0
94.6 0 0
94.7 0 0
94.8 0 0
94.9 0 0
95 0 0
95.1 0 0
95.2 0 0
95.3 0 0
95.4 0 0
95.5 0 0
95.6 0 0
95.7 0 0
95.8 0 0
95.9 0 0
96 0 0
96.1 0 0
96.2 0 0
96.3 0 0
96.4 0 0
96.5 0 0
96.6 0 0
96.7 0 0
96.8 0 0
96.9 0 0
97 0 0
97.1 0 0
97.2 0 0
97.3 0 0
97.4 0 0
97.5 0 0
97.6 0 0
97.7 0 0
97.8 0 0
97.9 0 0
98 0 0
98.1 0 0
98.2 0 0
98.3 0 0
98.4 0 0
98.5 0 0
98.6 0 0
98.7 0 0
98.8 0 0
98.9 0 0
99 0 0
99.1 0 0
99.2 0 0
99.3 0 0
99.4 0 0
99.5 0 0
99.6 0 0
99.7 0 0
99.8 0 0
99.9 0 0
100 0 0
100.1 0 0
100.2 0 0
100.3 0 0
100.4 0 0
100.5 0 0
100.6 0 0
100.7 0 0
100.8 0 0
100.9 0 0
101 0 0
101.1 0 0
101.2 0 0
101.3 0 0
101.4 0 0
101.5 0 0
101.6 0 0
101.7 0 0
101.8 0 0
101.9 0 0
102 0 0
102.1 0 0
102.2 0 0
102.3 0 0
102.4 0 0
102.5 0 0
102.6 0 0
102.7 0 0
102.8 0 0
102.9 0 0
103 0 0
103.1 0 0
103.2 0 0
103.3 0 0
103.4 0 0
103.5 0 0
103.6 0 0
103.7 0 0
103.8 0 0
103.9 0 0
104 0 0
104.1 0 0
104.2 0 0
104.3 0 0
104.4 0 0
104.5 0 0
104.6 0 0
104.7 0 0
104.8 0 0
104.9 0 0
105 0 0
105.1 0 0
105.2 0 0
105.3 0 0
105.4 0 0
105.5 0 0
105.6 0 0
105.7 0 0
105.8 0 0
105.9 0 0
106 0 0
106.1 0 0
106.2 0 0
106.3 0 0
106.4 0 0
106.5 0 0
106.6 0 0
106.7 0 0
106.8 0 0
106.9 0 0
107 0 0
107.1 0 0
107.2 0 0
107.3 0 0
107.4 0 0
107.5 0 0
107.6 0 0
107.7 0 0
107.8 0 0
107.9 0 0
108 0 0
108.1 0 0
108.2 0 0
108.3 0 0
108.4 0 0
108.5 0 0
108.6 0 0
108.7 0 0
108.8 0 0
108.9 0 0
109 0 0
109.1 0 0
109.2 0 0
109.3 0 0
109.4 0 0
109.5 0 0
109.6 0 0
109.7 0 0
109.8 0 0
109.9 0 0
110 0 0
110.1 0 0
110.2 0 0
110.3 0 0
110.4 0 0
110.5 0 0
110.6 0 0
110.7 0 0
110.8 0 0
110.9 0 0
111 0 0
111.1 0 0
111.2 0 0
111.3 0 0
111.4 0 0
111.5 0 0
111.6 0 0
111.7 0 0
111.8 0 0
111.9 0 0
112 0 0
[...]
POINT_DATA 83304

SCALARS pressure float 1
LOOKUP_TABLE default
0
0
0
0
0
0
0
0
0
0
0
0
0
0
0
0
0
0
0
0
0
0
0
0
0
0
0
0
0
0
0
0
0
0
0
0
0
0
0
0
0
0
0
0
0
0
0
0
0
0
0
0
0
0
0
0
0
0
0
0
0
0
0
0
0
0
0
0
0
0
0
0
0
0
0
0
0
0
0
0
0
0
0
0
0
0
0
0
0
0
0
0
0
0
0
0
0
0
0
0
0
0
0
0
0
0
0
0
0
0
0
0
0
0
0
0
0
0
0
0
0
0
0
0
0
0
0
0
0
0
0
0
0
0
0
0
0
0
0
0
0
0
0
0
0
0
0
0
0
0
0
0
0
0
0
0
0
0
0
0
0
0
0
0
0
0
0
0
0
0
0
0
0
0
0
0
0
0
0
0
0
0
0
0
0
0
0
0
0
0
0
0
0
0
0
0
0
0
0
0
0
0
0
0
0
0
0
0
0
0
0
0
0
0
0
0
0
0
0
0
0
0
0
0
0
0
0
0
0
0
0
0
0
0
0
0
0
0
0
0
0
0
0
0
0
0
0
0
0
0
0
0
0
0
0
0
0
0
0
0
0
0
0
0
0
0
0
0
0
0
0
0
0
0
0
0
0
0
0
0
0
0
0
0
0
0
0
0
0
0
0
0
0
0
0
0
0
0
0
0
0
0
0
0
0
0
0
0
0
0
0
0
0
0
0
0
0
0
0
0
0
0
0
0
0
0
0
0
0
0
0
0
0
0
0
0
0
0
0
0
0
0
0
0
0
0
0
0
0
0
0
0
0
0
0
0
0
0
0
0
0
0
0
0
0
0
0
0
0
0
0
0
0
0
0
0
0
0
0
0
0
0
0
0
0
0
0
0
0
0
0
0
0
0
0
0
0
0
0
0
0
0
0
0
0
0
0
0
0
0
0
0
0
0
0
0
0
0
0
0
0
0
0
0
0
0
0
0
0
0
0
0
0
0
0
0
0
0
0
0
0
0
0
0
0
0
0
0
0
0
0
0
0
0
0
0
0
0
0
0
0
0
0
0
0
0
0
0
0
0
0
0
0
0
0
0
0
0
0
0
0
0
0
0
0
0
0
0
0
0
0
0
0
0
0
0
0
0
0
0
0
0
0
0
0
0
0
0
0
0
0
0
0
0
0
0
0
0
0
0
0
0
0
0
0
0
0
0
0
0
0
0
0
0
0
0
0
0
0
0
0
0
0
0
0
0
0
0
0
0
0
0
0
0
0
0
0
0
0
0
0
0
0
0
0
0
0
0
0
0
0
0
0
0
0
0
0
0
0
0
0
0
0
0
0
0
0
0
0
0
0
0
0
0
0
0
0
0
0
0
0
0
0
0
0
0
0
0
0
0
0
0
0
0
0
0
0
0
0
0
0
0
0
0
0
0
0
0
0
0
0
0
0
0
0
0
0
0
0
0
0
0
0
0
0
0
0
0
0
0
0
0
0
0
0
0
0
0
0
0
0
0
0
0
0
0
0
0
0
0
0
0
0
0
0
0
0
0
0
0
0
0
0
0
0
0
0
0
0
0
0
0
0
0
0
0
0
0
0
0
0
0
0
0
0
0
0
0
0
0
0
0
0
0
0
0
0
0
0
0
0
0
0
0
0
0
0
0
0
0
0
0
0
0
0
0
0
0
0
0
0
0
0
0
0
0
0
0
0
0
0
0
0
0
0
0
0
0
0
0
0
0
0
0
0
0
0
0
0
0
0
0
0
0
0
0
0
0
0
0
0
0
0
0
0
0
0
0
0
0
0
0
0
0
0
0
0
0
0
0
0
0
0
0
0
0
0
0
0
0
0
0
0
0
0
0
0
0
0
0
0
0
0
0
0
0
0
0
0
0
0
0
0
0
0
0
0
0
0
0
0
0
0
0
0
0
0
0
0
0
0
0
0
0
0
0
0
0
0
0
0
0
0
0
0
0
0
0
0
0
0
0
0
0
0
0
0
0
0
0
0
0
0
0
0
0
0
0
0
0
0
0
0
0
0
0
0
0
0
0
0
0
0
0
0
0
0
0
0
0
0
0
0
0
0
0
0
0
0
0
0
0
0
0
0
0
0
0
0
0
0
0
0
0
0
0
0
0
0
0
0
0
0
0
0
0
0
0
0
0
0
0
0
0
0
0
0
0
0
0
0
0
0
0
0
0
0
0
0
0
0
0
0
0
0
0
0
0
0
0
0
0
0
0
0
0
0
0
0
0
0
0
0
0
0
0
0
0
0
0
0
0
0
0
0
0
0
0
0
0
0
0
0
0
0
0
0
0
0
0
0
0
0
0
0
0
0
0
0
0
0
0
0
0
0
0
0
0
0
0
0
0
0
0
0
0
0
0
0
0
0
0
0
0
0
0
0
0
0
0
0
0
0
0
0
0
0
0
0
0
0
0
0
0
0
0
0
0
0
0
0
0
0
0
0
0
0
0
0
0
0
0
0
0
0
0
0
0
0
0
0
0
0
0
0
0
0
0
0
0
0
0
0
0
0
0
0
0
0
0
0
0
0
0
0
0
0
0
0
0
0
0
0
0
0
0
0
0
0
0
0
0
0
0
0
0
0
0
0
0
0
0
0
0
0
0
0
0
0
0
0
0
0
0
0
0
0
0
0
0
0
0
0
0
0
0
0
0
0
0
0
0
0
0
0
0
0
0
0
0
0
0
0
0
0
0
0
0
0
0
0
0
0
0
0
0
0
0
0
0
0
0
0
0
0
0
0
0
0
0
0
0
0
0
0
0
0
0
0
0
0
0
0
0
0
0
0
0
0
0
0
0
0
0
0
0
0
0
0
0
0
0
0
0
0
0
0
0
0
0
0
0
0
0
0
0
0
0
0
0
0
0
0
0
0
0
0
0
0
0
0
0
0
0
0
0
0
0
0
0
0
0
0
0
0
0
0
0
0
0
0
0
0
0
0
0
0
0
0
0
0
0
0
0
0
0
0
0
0
0
0
0
0
0
0
0
0
0
0
0
0
0
0
0
0
0
0
0
0
0
0
0
0
0
0
0
0
0
0
0
0
0
0
0
0
0
0
0
0
0
0
0
0
0
0
0
0
0
0
0
0
0
0
0
0
0
0
0
0
0
0
0
0
0
0
0
0
0
0
0
0
0
0
0
0
0
0
0
0
0
0
0
0
0
0
0
0
0
0
0
0
0
0
0
0
0
0
0
0
0
0
0
0
0
0
0
0
0
0
0
0
0
0
0
0
0
0
0
0
0
0
0
0
0
0
0
0
0
0
0
0
0
0
0
0
0
0
0
0
0
0
0
0
0
0
0
0
0
0
0
0
0
0
0
0
0
0
0
0
0
0
0
0
0
0
0
0
0
0
0
0
0
0
0
0
0
0
0
0
0
0
0
0
0
0
0
0
0
0
0
0
0
0
0
0
0
0
0
0
0
0
0
0
0
0
0
0
0
0
0
0
0
0
0
0
0
0
0
0
0
0
0
0
0
0
0
0
0
0
0
0
0
0
0
0
0
0
0
0
0
0
0
0
0
0
0
0
0
0
0
0
0
0
0
0
0
0
0
0
0
0
0
0
0
0
0
0
0
0
0
0
0
0
0
0
0
0
0
0
0
0
0
0
0.0776391
0.0529
0.0436454
0.0357356
0.0304711
0.0270976
0.0247881
0.0230987
0.0217794
0.0207013
0.0197908
0.0190029
0.0183081
0.0176853
0.0171164
0.0165842
0.0160704
0.0155532
0.0150058
0.0143978
0.0136984
0.012883
0.0119428
0.010897
0.0098084
0.00879361
0.00802565
0.00772266
0.00812353
0.00945199
0.0118789
0.0154965
0.0203025
0.0262113
0.0330749
0.0406999
0.0488731
0.057388
0.0660364
0.0746488
0.0830763
0.09115
0.0987095
0.105616
0.111753
0.116992
0.121152
0.124019
0.125406
0.125204
0.123393
0.120041
0.115279
0.109301
0.102353
0.0947181
0.0866972
0.0785743
0.0705918
0.0629376
0.055743
0.049089
0.043016
0.037533
0.0326273
0.0282711
0.0244273
0.0210538
0.0181065
0.0155416
0.0133171
0.0113937
0.0097345
0.00830607
0.00707855
0.00602575
0.00512448
0.00435382
0.00369491
0.00313145
0.00265017
0.00224058
0.00189373
0.00160082
0.00135283
0.00114164
0.000961731
0.000810965
0.000689375
0.000596179
0.000526724
0.00047142
0.000417766
0.000354842
0.000278078
0.000191787
0.000107946
4.15724e-05
4.70194e-06
1.55653e-06
2.68361e-05
6.76238e-05
0.000107892
0.000133705
0.000137202
0.000118123
8.27352e-05
4.09326e-05
2.76208e-06
-2.4403e-05
-3.73197e-05
-3.68339e-05
-2.67165e-05
-1.19965e-05
2.60547e-06
1.37382e-05
1.9831e-05
2.09366e-05
1.82191e-05
1.3332e-05
7.87864e-06
3.0651e-06
-4.34842e-07
-2.44398e-06
-3.14455e-06
-2.90975e-06
-2.15514e-06
-1.23685e-06
-4.01893e-07
2.18646e-07
5.8924e-07
7.37798e-07
7.23694e-07
6.12758e-07
4.6161e-07
3.1061e-07
1.83154e-07
8.86376e-08
2.68525e-08
-7.72884e-09
-2.25909e-08
-2.49782e-08
-2.07549e-08
-1.40472e-08
-7.36777e-09
-1.96815e-09
1.75569e-09
3.90572e-09
4.81385e-09
4.86783e-09
4.41525e-09
3.72345e-09
2.97386e-09
2.27421e-09
1.67715e-09
1.19866e-09
8.33269e-10
5.64986e-10
3.74454e-10
2.43013e-10
1.54652e-10
9.66278e-11
5.93356e-11
3.58409e-11
2.13122e-11
1.24841e-11
7.20823e-12
4.10466e-12
2.30628e-12
1.27916e-12
7.00638e-13
3.79117e-13
2.02728e-13
1.07164e-13
5.60153e-14
2.89604e-14
1.48133e-14
7.49806e-15
3.75661e-15
1.8633e-15
9.15152e-16
4.45155e-16
2.14493e-16
1.02393e-16
4.84345e-17
2.27055e-17
1.05502e-17
4.85971e-18
2.21938e-18
1.00504e-18
4.51354e-19
2.01041e-19
8.88252e-20
3.89329e-20
1.69307e-20
7.30552e-21
3.12817e-21
1.32933e-21
5.60685e-22
2.3474e-22
9.75602e-23
4.02544e-23
1.64909e-23
6.70808e-24
2.70962e-24
1.08695e-24
4.33039e-25
1.71355e-25
6.73509e-26
2.62966e-26
1.01998e-26
3.93047e-27
1.50483e-27
5.72462e-28
2.16394e-28
8.12849e-29
3.03433e-29
1.12571e-29
4.15077e-30
1.5212e-30
5.54147e-31
2.00661e-31
7.22311e-32
2.5848e-32
9.19587e-33
3.25268e-33
1.1439e-33
3.99999e-34
1.39081e-34
4.80874e-35
1.65337e-35
5.65329e-36
1.92239e-36
6.50139e-37
2.18682e-37
7.3161e-38
2.43455e-38
8.0584e-39
2.65328e-39
8.69036e-40
2.83157e-40
9.17835e-41
2.95982e-41
9.49608e-42
3.0312e-42
9.62695e-43
3.04215e-43
9.56542e-44
2.99275e-44
9.3174e-45
2.8866e-45
8.89941e-46
2.73041e-46
8.33684e-47
2.53332e-47
7.66142e-48
2.30604e-48
6.90838e-49
2.05991e-49
6.11353e-50
1.80601e-50
5.31059e-51
1.55443e-51
4.52911e-52
1.31365e-52
3.793e-53
1.09026e-53
3.11984e-54
8.88791e-55
2.52081e-55
7.1181e-56
2.00115e-56
5.60142e-57
1.56108e-57
4.33185e-58
1.19688e-58
3.29277e-59
9.02026e-60
2.46054e-60
6.6835e-61
1.80779e-61
4.86934e-62
1.30611e-62
3.48885e-63
9.28087e-64
2.45869e-64
6.48691e-65
1.7045e-65
4.46055e-66
1.16257e-66
3.01787e-67
7.80253e-68
2.00924e-68
5.15345e-69
1.31656e-69
3.35016e-70
8.49144e-71
2.14385e-71
5.3915e-72
1.35063e-72
3.37038e-73
8.37809e-74
2.07463e-74
5.11769e-75
1.25762e-75
3.07874e-76
7.50848e-77
1.82428e-77
4.41571e-78
1.06483e-78
2.55824e-79
6.12333e-80
1.46024e-80
3.46944e-81
8.21288e-82
1.93705e-82
4.55198e-83
1.06581e-83
2.48647e-84
5.77987e-85
1.33872e-85
3.0896e-86
7.10497e-87
1.62807e-87
3.71744e-88
8.45818e-89
1.91769e-89
4.33263e-90
9.75446e-91
2.18846e-91
4.89285e-92
1.09013e-92
2.42044e-93
5.35565e-94
1.18097e-94
2.59523e-95
5.68372e-96
1.24054e-96
2.69846e-97
5.84997e-98
1.26394e-98
2.7217e-99
5.84118e-100
1.24942e-100
2.66363e-101
5.65973e-102
1.19862e-102
2.53008e-103
5.32303e-104
1.11625e-104
2.33315e-105
4.86082e-106
1.0094e-106
2.08936e-107
4.31082e-108
8.86559e-109
1.81744e-109
3.71385e-110
7.56486e-111
1.53601e-111
3.10893e-112
6.27268e-113
1.26161e-113
2.52947e-114
5.05558e-115
1.00729e-115
2.0007e-116
3.9615e-117
7.8197e-118
1.53878e-118
3.01872e-119
5.90381e-120
1.15109e-120
2.23747e-121
4.33592e-122
8.37689e-123
1.61349e-123
3.09838e-124
5.93187e-125
1.13225e-125
2.15471e-126
4.08821e-127
7.73359e-128
1.4586e-128
2.74283e-129
5.14252e-130
9.61323e-131
1.79177e-131
3.3298e-132
6.16993e-133
1.13991e-133
2.09989e-134
3.85706e-135
7.06408e-136
1.29002e-136
2.34901e-137
4.26501e-138
7.72162e-139
1.39396e-139
2.5093e-140
4.50416e-141
8.06194e-142
1.43891e-142
2.56092e-143
4.54498e-144
8.04349e-145
1.4195e-145
2.4981e-146
4.38398e-147
7.67212e-148
1.33891e-148
2.33015e-149
4.044e-150
6.99903e-151
1.208e-151
2.07922e-152
3.56897e-153
6.10935e-154
1.04294e-154
1.77559e-155
3.01469e-156
5.10464e-157
8.62008e-158
1.45172e-158
2.4383e-159
4.08434e-160
6.82325e-161
1.13684e-161
1.88906e-162
3.13066e-163
5.17453e-164
8.5301e-165
1.40245e-165
2.29971e-166
3.76111e-167
6.13501e-168
9.98103e-169
1.61956e-169
2.62112e-170
4.231e-171
6.81192e-172
1.09388e-172
1.75204e-173
2.79895e-174
4.45992e-175
7.08829e-176
1.12367e-176
1.77675e-177
2.80221e-178
4.40827e-179
6.91718e-180
1.08265e-180
1.69021e-181
2.63208e-182
4.08845e-183
6.33467e-184
9.79031e-185
1.50931e-185
2.32099e-186
3.56027e-187
5.44764e-188
8.31482e-189
1.26595e-189
1.92268e-190
2.91286e-191
4.40211e-192
6.63637e-193
9.98004e-194
1.49716e-194
2.24047e-195
3.34463e-196
4.98077e-197
7.39925e-198
1.09653e-198
1.62108e-199
2.39074e-200
3.51732e-201
5.1623e-202
7.55839e-203
1.10401e-203
1.60869e-204
2.33847e-205
3.3912e-206
4.90614e-207
7.08097e-208
1.01956e-208
1.46455e-209
2.09877e-210
3.00055e-211
4.27969e-212
6.08978e-213
8.64509e-214
1.22439e-214
1.73002e-215
2.43876e-216
3.42984e-217
4.81245e-218
6.73674e-219
9.40861e-220
1.31098e-220
1.82247e-221
2.5277e-222
3.49774e-223
4.82894e-224
6.65149e-225
9.14094e-226
1.25334e-226
1.71457e-227
2.3402e-228
3.18685e-229
4.32996e-230
5.86977e-231
7.93917e-232
1.07139e-232
1.44258e-233
1.93801e-234
2.59773e-235
3.47422e-236
4.63605e-237
6.17258e-238
8.20005e-239
1.08692e-239
1.43751e-240
1.89698e-241
2.49775e-242
3.2815e-243
4.30167e-244
5.62657e-245
7.34332e-246
9.56283e-247
1.24259e-247
1.61107e-248
2.08426e-249
2.69054e-250
3.46561e-251
4.45424e-252
5.71246e-253
7.31021e-254
9.33458e-255
1.18938e-255
1.51219e-256
1.91847e-257
2.42868e-258
3.06796e-259
3.86721e-260
4.86422e-261
6.1052e-262
7.64642e-263
9.5563e-264
1.19178e-264
1.48313e-265
1.84178e-266
2.28232e-267
2.82226e-268
3.48255e-269
4.28826e-270
5.26926e-271
6.46107e-272
7.90581e-273
9.65333e-274
1.17625e-274
1.43024e-275
1.73546e-276
2.10143e-277
2.53927e-278
3.06197e-279
3.6846e-280
4.42466e-281
5.30237e-282
6.34106e-283
7.56759e-284
9.01277e-285
1.07119e-285
1.27051e-286
1.50384e-287
1.77637e-288
2.09401e-289
2.4634e-290
2.89204e-291
3.38836e-292
3.96179e-293
4.62286e-294
5.3833e-295
6.25614e-296
7.25581e-297
8.39822e-298
9.70092e-299
1.11831e-299
1.28659e-300
1.47722e-301
1.69269e-302
1.93571e-303
2.20919e-304
2.51628e-305
2.86034e-306
3.24497e-307
3.67401e-308
4.15151e-309
4.68178e-310
5.26932e-311
5.91886e-312
6.63535e-313
7.4239e-314
8.2898e-315
9.23849e-316
1.02755e-316
1.14066e-317
1.26373e-318
1.39737e-319
1.54198e-320
1.69959e-321
1.87745e-322
1.4822e-323
0
0
0
0
0
0
0
0
0
0
0
0
0
0
0
0
0
0
0
0
0
0
0
0
0
0
0
0
0
0
0
0
0
0
0
0
0
0
0
0
0
0
0
0
0
0
0
0
0
0
0
0
0
0
0
0
0
0
0
0
0
0
0
0
0
0
0
0
0
0
0
0
0
0
0
0
0
0
0
0
0
0
0
0
0
0
0
0
0
0
0
0
0
0
0
0
0
0
0
0
0
0
0
0
0
0
0
0
0
0
0
0
0
0
0
0
0
0
0
0
0
0
0
0
0
0
0
0
0
0
0
0
0
0
0
0
0
0
0
0
0
0
0
0
0
0
0
0
0
0
0
0
0
0
0
0
0
0
0
0
0
0
0
0
0
0
0
0
0
0
0
0
0
0
0
0
0
0
0
0
0
0
0
0
0
0
0
0
0
0
0
0
0
0
0
0
0
0
0
0
0
0
0
0
0
0
0
0
0
0
0
0
0
0
0
0
0
0
0
0
0
0
0
0
0
0
0
0
0
0
0
0
0
0
0
0
0
0
0
0
0
0
0
0
0
0
0
0
0
0
0
0
0
0
0
0
0
0
0
0
0
0
0
0
0
0
0
0
0
0
0
0
0
0
0
0
0
0
0
0
0
0
0
0
0
0
0
0
0
0
0
0
0
0
0
0
0
0
0
0
0
0
0
0
0
0
0
0
0
0
0
0
0
0
0
0
0
0
0
0
0
0
0
0
0
0
0
0
0
0
0
0
0
0
0
0
0
0
0
0
0
0
0
0
0
0
0
0
0
0
0
0
0
0
0
0
0
0
0
0
0
0
0
0
0
0
0
0
0
0
0
0
0
0
0
0
0
0
0
0
0
0
0
0
0
0
0
0
0
0
0
0
0
0
0
0
0
0
0
0
0
0
0
0
0
0
0
0
0
0
0
0
0
0
0
0
0
0
0
0
0
0
0
0
0
0
0
0
0
0
0
0
0
0
0
0
0
0
0
0
0
0
0
0
0
0
0
0
0
0
0
0
0
0
0
0
0
0
0
0
0
0
0
0
0
0
0
0
0
0
0
0
0
0
0
0
0
0
0
0
0
0
0
0
0
0
0
0
0
0
0
0
0
0
0
0
0
0
0
0
0
0
0
0
0
0
0
0
0
0
0
0
0
0
0
0
0
0
0
0
0
0
0
0
0
0
0
0
0
0
0
0
0
0
0
0
0
0
0
0
0
0
0
0
0
0
0
0
0
0
0
0
0
0
0
0
0
0
0
0
0
0
0
0
0
0
0
0
0
0
0
0
0
0
0
0
0
0
0
0
0
0
0
0
0
0
0
0
0
0
0
0
0
0
0
0
0
0
0
0
0
0
0
0
0
0
0
0
0
0
0
0
0
0
0
0
0
0
0
0
0
0
0
0
0
0
0
0
0
0
0
0
0
0
0
0
0
0
0
0
0
0
0
0
0
0
0
0
0
0
0
0
0
0
0
0
0
0
0
0
0
0
0
0
0
0
0
0
0
0
0
0
0
0
0
0
0
0
0
0
0
0
0
0
0
0
0
0
0
0
0
0
0
0
0
0
0
0
0
0
0
0
0
0
0
0
0
0
0
0
0
0
0
0
0
0
0
0
0
0
0
0
0
0
0
0
0
0
0
0
0
0
0
0
0
0
0
0
0
0
0
0
0
0
0
0
0
0
0
0
0
0
0
0
0
0
0
0
0
0
0
0
0
0
0
0
0
0
0
0
0
0
0
0
0
0
0
0
0
0
0
0
0
0
0
0
0
0
0
0
0
0
0
0
0
0
0
0
0
0
0
0
0
0
0
0
0
0
0
0
0
0
0
0
0
0
0
0
0
0
0
0
0
0
0
0
0
0
0
0
0
0
0
0
0
0
0
0
0
0
0
0
0
0
0
0
0
0
0
0
0
0
0
0
0
0
0
0
0
0
0
0
0
0
0
0
0
0
0
0
0
0
0
0
0
0
0
0
0
0
0
0
0
0
0
0
0
0
0
0
0
0
0
0
0
0
0
0
0
0
0
0
0
0
0
0
0
0
0
0
0
0
0
0
0
0
0
0
0
0
0
0
0
0
0
0
0
0
0
0
0
0
0
0
0
0
0
0
0
0
0
0
0
0
0
0
0
0
0
0
0
0
0
0
0
0
0
0
0
0
0
0
0
0
0
0
0
0
0
0
0
0
0
0
0
0
0
0
0
0
0
0
0
0
0
0
0
0
0
0.0627839
0.0345516
0.0299535
0.0252721
0.0221329
0.0199991
0.0184399
0.017252
0.0163008
0.0155132
0.0148432
0.0142609
0.0137464
0.0132846
0.0128628
0.0124681
0.0120867
0.0117027
0.011296
0.0108431
0.0103197
0.00970573
0.0089919
0.0081887
0.00733805
0.00652305
0.00587154
0.00554926
0.0057424
0.00662986
0.00835134
0.0109828
0.0145216
0.0188945
0.0239688
0.0295722
0.035516
0.041618
0.0477016
0.0536194
0.0592564
0.0645004
0.0692621
0.0734757
0.0770953
0.0800729
0.0823386
0.0838105
0.0844205
0.0841353
0.082962
0.0809416
0.0781413
0.0746479
0.0705654
0.0660144
0.0611311
0.0560602
0.0509442
0.045911
0.0410657
0.0364872
0.0322282
0.0283187
0.02477
0.0215793
0.0187336
0.0162131
0.0139936
0.0120488
0.0103523
0.00887804
0.00760105
0.00649768
0.00554639
0.0047281
0.00402598
0.00342468
0.00290995
0.00246901
0.00209129
0.00176871
0.00149489
0.00126371
0.00106842
0.000902045
0.000759107
0.000637153
0.000536741
0.000459321
0.00040402
0.000365292
0.000333121
0.000296126
0.000246215
0.000182415
0.000111833
4.70908e-05
1.3385e-06
-1.69622e-05
-7.28314e-06
2.28654e-05
6.0757e-05
9.28667e-05
0.000109112
0.000105455
8.42108e-05
5.23194e-05
1.85185e-05
-9.47276e-06
-2.68762e-05
-3.25013e-05
-2.82308e-05
-1.77905e-05
-5.34149e-06
5.66002e-06
1.31009e-05
1.63202e-05
1.58221e-05
1.27895e-05
8.59018e-06
4.40152e-06
1.00887e-06
-1.23386e-06
-2.32948e-06
-2.50837e-06
-2.09583e-06
-1.40843e-06
-6.92067e-07
-9.95749e-08
3.02865e-07
5.13606e-07
5.6905e-07
5.20379e-07
4.17146e-07
2.9827e-07
1.89104e-07
1.02515e-07
4.19489e-08
4.96977e-09
-1.36733e-08
-1.98396e-08
-1.86937e-08
-1.41368e-08
-8.73573e-09
-3.92584e-09
-3.18218e-10
1.99699e-09
3.20507e-09
3.59538e-09
3.45797e-09
3.03271e-09
2.49319e-09
1.9504e-09
1.4654e-09
1.06399e-09
7.49847e-10
5.14618e-10
3.44798e-10
2.25985e-10
1.45123e-10
9.14349e-11
5.65853e-11
3.44294e-11
2.06136e-11
1.21533e-11
7.06043e-12
4.04404e-12
2.28492e-12
1.27409e-12
7.0144e-13
3.81422e-13
2.04928e-13
1.08823e-13
5.71339e-14
2.9665e-14
1.52366e-14
7.74334e-15
3.89464e-15
1.93909e-15
9.55894e-16
4.66645e-16
2.25636e-16
1.08081e-16
5.12954e-17
2.41251e-17
1.12456e-17
5.19616e-18
2.38028e-18
1.08112e-18
4.86943e-19
2.17516e-19
9.63745e-20
4.23585e-20
1.84703e-20
7.99106e-21
3.43066e-21
1.46162e-21
6.1804e-22
2.59395e-22
1.08071e-22
4.46983e-23
1.83547e-23
7.48364e-24
3.02984e-24
1.21815e-24
4.8639e-25
1.92888e-25
7.59787e-26
2.97285e-26
1.15552e-26
4.46204e-27
1.71185e-27
6.52532e-28
2.47154e-28
9.3022e-29
3.47923e-29
1.29325e-29
4.77757e-30
1.7542e-30
6.40208e-31
2.32249e-31
8.37531e-32
3.00248e-32
1.07007e-32
3.79159e-33
1.33574e-33
4.67879e-34
1.62958e-34
5.64375e-35
1.94369e-35
6.65686e-36
2.26733e-36
7.68028e-37
2.58747e-37
8.67012e-38
2.88963e-38
9.57948e-39
3.15893e-39
1.03622e-39
3.38137e-40
1.09768e-40
3.54501e-41
1.13902e-41
3.64106e-42
1.15804e-42
3.66467e-43
1.1539e-43
3.61528e-44
1.12711e-44
3.49668e-45
1.0795e-45
3.31645e-46
1.01398e-46
3.08527e-47
9.34294e-48
2.81584e-48
8.44657e-49
2.52179e-49
7.4939e-50
2.21659e-50
6.52608e-51
1.91259e-51
5.57956e-52
1.62032e-52
4.68415e-53
1.34804e-53
3.86213e-54
1.10157e-54
3.12798e-55
8.84296e-56
2.48897e-56
6.97492e-57
1.94611e-57
5.40641e-58
1.49547e-58
4.11886e-59
1.12959e-59
3.0847e-60
8.38812e-61
2.27135e-61
6.1246e-62
1.64458e-62
4.39769e-63
1.1711e-63
3.10576e-64
8.20274e-65
2.1576e-65
5.65216e-66
1.47467e-66
3.83194e-67
9.91736e-68
2.55642e-68
6.5635e-69
1.67846e-69
4.27532e-70
1.08471e-70
2.74127e-71
6.90066e-72
1.73037e-72
4.32215e-73
1.07543e-73
2.66558e-74
6.58166e-75
1.6189e-75
3.96689e-76
9.68352e-77
2.35492e-77
5.70536e-78
1.37709e-78
3.31144e-79
7.93332e-80
1.89358e-80
4.50303e-81
1.06691e-81
2.51859e-82
5.92377e-83
1.38822e-83
3.24145e-84
7.54136e-85
1.74821e-85
4.03812e-86
9.29413e-87
2.13152e-87
4.87107e-88
1.10923e-88
2.517e-89
5.69138e-90
1.28241e-90
2.87951e-91
6.44313e-92
1.4367e-92
3.19251e-93
7.06968e-94
1.56017e-94
3.43129e-95
7.52068e-96
1.64277e-96
3.57622e-97
7.75889e-98
1.67768e-98
3.61542e-99
7.76519e-100
1.66224e-100
3.5464e-101
7.54117e-102
1.59828e-102
3.37622e-103
7.10853e-104
1.49178e-104
3.12037e-105
6.50568e-106
1.35197e-106
2.80048e-107
5.7822e-108
1.19002e-108
2.44129e-109
4.99222e-110
1.01761e-110
2.06767e-111
4.18798e-112
8.45573e-113
1.70187e-113
3.41455e-114
6.8293e-115
1.36163e-115
2.70636e-116
5.36241e-117
1.05922e-117
2.08576e-118
4.09453e-119
8.0132e-120
1.56341e-120
3.04096e-121
5.89688e-122
1.14001e-122
2.19725e-123
4.22213e-124
8.08857e-125
1.54491e-125
2.94191e-126
5.5854e-127
1.05726e-127
1.99531e-128
3.75449e-129
7.04372e-130
1.31756e-130
2.45728e-131
4.56942e-132
8.47213e-133
1.56622e-133
2.88699e-134
5.30606e-135
9.72382e-136
1.77682e-136
3.23738e-137
5.88156e-138
1.06547e-138
1.92462e-139
3.4666e-140
6.22621e-141
1.11508e-141
1.99139e-142
3.54629e-143
6.29745e-144
1.11514e-144
1.96913e-145
3.46736e-146
6.08845e-147
1.06611e-147
1.86161e-148
3.24165e-149
5.62911e-150
9.74792e-151
1.68339e-151
2.89909e-152
4.97905e-153
8.52786e-154
1.45662e-154
2.48123e-155
4.21509e-156
7.14113e-157
1.20656e-157
2.0331e-158
3.41662e-159
5.72619e-160
9.57126e-161
1.59554e-161
2.6527e-162
4.39854e-163
7.274e-164
1.19974e-164
1.97355e-165
3.23788e-166
5.29821e-167
8.64678e-168
1.40747e-168
2.285e-169
3.69997e-170
5.97554e-171
9.62555e-172
1.54648e-172
2.47822e-173
3.96106e-174
6.31483e-175
1.00414e-175
1.59261e-176
2.51949e-177
3.9756e-178
6.25726e-179
9.82334e-180
1.53826e-180
2.40269e-181
3.7434e-182
5.81751e-183
9.01805e-184
1.39443e-184
2.15073e-185
3.30895e-186
5.07816e-187
7.7739e-188
1.1871e-188
1.80825e-189
2.74759e-190
4.16456e-191
6.29671e-192
9.497e-193
1.42886e-193
2.1445e-194
3.21069e-195
4.7952e-196
7.14423e-197
1.0618e-197
1.57426e-198
2.32839e-199
3.43544e-200
5.05658e-201
7.42479e-202
1.08759e-202
1.58928e-203
2.31683e-204
3.36936e-205
4.88834e-206
7.07522e-207
1.02161e-207
1.47161e-208
2.11482e-209
3.03197e-210
4.3366e-211
6.18798e-212
8.80896e-213
1.25106e-213
1.77262e-214
2.50573e-215
3.53375e-216
4.97193e-217
6.97914e-218
9.77392e-219
1.36561e-219
1.90362e-220
2.64744e-221
3.67342e-222
5.08528e-223
7.02358e-224
9.67844e-225
1.33063e-225
1.82521e-226
2.49791e-227
3.41076e-228
4.64662e-229
6.3159e-230
8.56541e-231
1.15898e-231
1.56468e-232
2.10761e-233
2.83256e-234
3.79832e-235
5.08191e-236
6.78406e-237
9.03609e-238
1.20088e-238
1.5924e-239
2.10687e-240
2.78135e-241
3.66363e-242
4.8151e-243
6.31448e-244
8.2625e-245
1.07877e-245
1.40536e-246
1.82681e-247
2.36945e-248
3.06655e-249
3.96006e-250
5.10278e-251
6.56092e-252
8.41739e-253
1.07757e-253
1.37649e-254
1.75453e-255
2.23156e-256
2.83218e-257
3.5867e-258
4.53247e-259
5.71534e-260
7.19146e-261
9.02948e-262
1.1313e-262
1.41439e-263
1.76454e-264
2.19671e-265
2.7289e-266
3.38286e-267
4.18464e-268
5.16553e-269
6.36288e-270
7.82126e-271
9.59369e-272
1.17431e-272
1.43438e-273
1.74839e-274
2.12669e-275
2.58143e-276
3.12688e-277
3.7797e-278
4.55932e-279
5.48833e-280
6.59294e-281
7.90349e-282
9.45498e-283
1.12877e-283
1.34479e-284
1.59885e-285
1.89701e-286
2.24616e-287
2.65412e-288
3.12976e-289
3.6831e-290
4.32543e-291
5.06944e-292
5.92934e-293
6.92103e-294
8.06218e-295
9.37248e-296
1.08737e-296
1.25899e-297
1.45476e-298
1.67758e-299
1.93065e-300
2.21742e-301
2.54169e-302
2.90754e-303
3.31941e-304
3.78204e-305
4.30057e-306
4.88044e-307
5.52748e-308
6.24788e-309
7.04816e-310
7.9352e-311
8.9162e-312
9.99868e-313
1.11905e-313
1.24996e-314
1.39345e-315