# vtk DataFile Version 2.0
FlowField
ASCII
DATASET STRUCTURED_GRID
DIMENSIONS 1602 1 52
POINTS 83304 float
0 0 0
0.1 0 0
0.2 0 0
0.3 0 0
0.4 0 0
0.5 0 0
0.6 0 0
0.7 0 0
0.8 0 0
0.9 0 0
1 0 0
1.1 0 0
1.2 0 0
1.3 0 0
1.4 0 0
1.5 0 0
1.6 0 0
1.7 0 0
1.8 0 0
1.9 0 0
2 0 0
2.1 0 0
2.2 0 0
2.3 0 0
2.4 0 0
2.5 0 0
2.6 0 0
2.7 0 0
2.8 0 0
2.9 0 0
3 0 0
3.1 0 0
3.2 0 0
3.3 0 0
3.4 0 0
3.5 0 0
3.6 0 0
3.7 0 0
3.8 0 0
3.9 0 0
4 0 0
4.1 0 0
4.2 0 0
4.3 0 0
4.4 0 0
4.5 0 0
4.6 0 0
4.7 0 0
4.8 0 0
4.9 0 0
5 0 0
5.1 0 0
5.2 0 0
5.3 0 0
5.4 0 0
5.5 0 0
5.6 0 0
5.7 0 0
5.8 0 0
5.9 0 0
6 0 0
6.1 0 0
6.2 0 0
6.3 0 0
6.4 0 0
6.5 0 0
6.6 0 0
6.7 0 0
6.8 0 0
6.9 0 0
7 0 0
7.1 0 0
7.2 0 0
7.3 0 0
7.4 0 0
7.5 0 0
7.6 0 0
7.7 0 0
7.8 0 0
7.9 0 0
8 0 0
8.1 0 0
8.2 0 0
8.3 0 0
8.4 0 0
8.5 0 0
8.6 0 0
8.7 0 0
8.8 0 0
8.9 0 0
9 0 0
9.1 0 0
9.2 0 0
9.3 0 0
9.4 0 0
9.5 0 0
9.6 0 0
9.7 0 0
9.8 0 0
9.9 0 0
10 0 0
10.1 0 0
10.2 0 0
10.3 0 0
10.4 0 0
10.5 0 0
10.6 0 0
10.7 0 0
10.8 0 0
10.9 0 0
11 0 0
11.1 0 0
11.2 0 0
11.3 0 0
11.4 0 0
11.5 0 0
11.6 0 0
11.7 0 0
11.8 0 0
11.9 0 0
12 0 0
12.1 0 0
12.2 0 0
12.3 0 0
12.4 0 0
12.5 0 0
12.6 0 0
12.7 0 0
12.8 0 0
12.9 0 0
13 0 0
13.1 0 0
13.2 0 0
13.3 0 0
13.4 0 0
13.5 0 0
13.6 0 0
13.7 0 0
13.8 0 0
13.9 0 0
14 0 0
14.1 0 0
14.2 0 0
14.3 0 0
14.4 0 0
14.5 0 0
14.6 0 0
14.7 0 0
14.8 0 0
14.9 0 0
15 0 0
15.1 0 0
15.2 0 0
15.3 0 0
15.4 0 0
15.5 0 0
15.6 0 0
15.7 0 0
15.8 0 0
15.9 0 0
16 0 0
16.1 0 0
16.2 0 0
16.3 0 0
16.4 0 0
16.5 0 0
16.6 0 0
16.7 0 0
16.8 0 0
16.9 0 0
17 0 0
17.1 0 0
17.2 0 0
17.3 0 0
17.4 0 0
17.5 0 0
17.6 0 0
17.7 0 0
17.8 0 0
17.9 0 0
18 0 0
18.1 0 0
18.2 0 0
18.3 0 0
18.4 0 0
18.5 0 0
18.6 0 0
18.7 0 0
18.8 0 0
18.9 0 0
19 0 0
19.1 0 0
19.2 0 0
19.3 0 0
19.4 0 0
19.5 0 0
19.6 0 0
19.7 0 0
19.8 0 0
19.9 0 0
20 0 0
20.1 0 0
20.2 0 0
20.3 0 0
20.4 0 0
20.5 0 0
20.6 0 0
20.7 0 0
20.8 0 0
20.9 0 0
21 0 0
21.1 0 0
21.2 0 0
21.3 0 0
21.4 0 0
21.5 0 0
21.6 0 0
21.7 0 0
21.8 0 0
21.9 0 0
22 0 0
22.1 0 0
22.2 0 0
22.3 0 0
22.4 0 0
22.5 0 0
22.6 0 0
22.7 0 0
22.8 0 0
22.9 0 0
23 0 0
23.1 0 0
23.2 0 0
23.3 0 0
23.4 0 0
23.5 0 0
23.6 0 0
23.7 0 0
23.8 0 0
23.9 0 0
24 0 0
24.1 0 0
24.2 0 0
24.3 0 0
24.4 0 0
24.5 0 0
24.6 0 0
24.7 0 0
24.8 0 0
24.9 0 0
25 0 0
25.1 0 0
25.2 0 0
25.3 0 0
25.4 0 0
25.5 0 0
25.6 0 0
25.7 0 0
25.8 0 0
25.9 0 0
26 0 0
26.1 0 0
26.2 0 0
26.3 0 0
26.4 0 0
26.5 0 0
26.6 0 0
26.7 0 0
26.8 0 0
26.9 0 0
27 0 0
27.1 0 0
27.2 0 0
27.3 0 0
27.4 0 0
27.5 0 0
27.6 0 0
27.7 0 0
27.8 0 0
27.9 0 0
28 0 0
28.1 0 0
28.2 0 0
28.3 0 0
28.4 0 0
28.5 0 0
28.6 0 0
28.7 0 0
28.8 0 0
28.9 0 0
29 0 0
29.1 0 0
29.2 0 0
29.3 0 0
29.4 0 0
29.5 0 0
29.6 0 0
29.7 0 0
29.8 0 0
29.9 0 0
30 0 0
30.1 0 0
30.2 0 0
30.3 0 0
30.4 0 0
30.5 0 0
30.6 0 0
30.7 0 0
30.8 0 0
30.9 0 0
31 0 0
31.1 0 0
31.2 0 0
31.3 0 0
31.4 0 0
31.5 0 0
31.6 0 0
31.7 0 0
31.8 0 0
31.9 0 0
32 0 0
32.1 0 0
32.2 0 0
32.3 0 0
32.4 0 0
32.5 0 0
32.6 0 0
32.7 0 0
32.8 0 0
32.9 0 0
33 0 0
33.1 0 0
33.2 0 0
33.3 0 0
33.4 0 0
33.5 0 0
33.6 0 0
33.7 0 0
33.8 0 0
33.9 0 0
34 0 0
34.1 0 0
34.2 0 0
34.3 0 0
34.4 0 0
34.5 0 0
34.6 0 0
34.7 0 0
34.8 0 0
34.9 0 0
35 0 0
35.1 0 0
35.2 0 0
35.3 0 0
35.4 0 0
35.5 0 0
35.6 0 0
35.7 0 0
35.8 0 0
35.9 0 0
36 0 0
36.1 0 0
36.2 0 0
36.3 0 0
36.4 0 0
36.5 0 0
36.6 0 0
36.7 0 0
36.8 0 0
36.9 0 0
37 0 0
37.1 0 0
37.2 0 0
37.3 0 0
37.4 0 0
37.5 0 0
37.6 0 0
37.7 0 0
37.8 0 0
37.9 0 0
38 0 0
38.1 0 0
38.2 0 0
38.3 0 0
38.4 0 0
38.5 0 0
38.6 0 0
38.7 0 0
38.8 0 0
38.9 0 0
39 0 0
39.1 0 0
39.2 0 0
39.3 0 0
39.4 0 0
39.5 0 0
39.6 0 0
39.7 0 0
39.8 0 0
39.9 0 0
40 0 0
40.1 0 0
40.2 0 0
40.3 0 0
40.4 0 0
40.5 0 0
40.6 0 0
40.7 0 0
40.8 0 0
40.9 0 0
41 0 0
41.1 0 0
41.2 0 0
41.3 0 0
41.4 0 0
41.5 0 0
41.6 0 0
41.7 0 0
41.8 0 0
41.9 0 0
42 0 0
42.1 0 0
42.2 0 0
42.3 0 0
42.4 0 0
42.5 0 0
42.6 0 0
42.7 0 0
42.8 0 0
42.9 0 0
43 0 0
43.1 0 0
43.2 0 0
43.3 0 0
43.4 0 0
43.5 0 0
43.6 0 0
43.7 0 0
43.8 0 0
43.9 0 0
44 0 0
44.1 0 0
44.2 0 0
44.3 0 0
44.4 0 0
44.5 0 0
44.6 0 0
44.7 0 0
44.8 0 0
44.9 0 0
45 0 0
45.1 0 0
45.2 0 0
45.3 0 0
45.4 0 0
45.5 0 0
45.6 0 0
45.7 0 0
45.8 0 0
45.9 0 0
46 0 0
46.1 0 0
46.2 0 0
46.3 0 0
46.4 0 0
46.5 0 0
46.6 0 0
46.7 0 0
46.8 0 0
46.9 0 0
47 0 0
47.1 0 0
47.2 0 0
47.3 0 0
47.4 0 0
47.5 0 0
47.6 0 0
47.7 0 0
47.8 0 0
47.9 0 0
48 0 0
48.1 0 0
48.2 0 0
48.3 0 0
48.4 0 0
48.5 0 0
48.6 0 0
48.7 0 0
48.8 0 0
48.9 0 0
49 0 0
49.1 0 0
49.2 0 0
49.3 0 0
49.4 0 0
49.5 0 0
49.6 0 0
49.7 0 0
49.8 0 0
49.9 0 0
50 0 0
50.1 0 0
50.2 0 0
50.3 0 0
50.4 0 0
50.5 0 0
50.6 0 0
50.7 0 0
50.8 0 0
50.9 0 0
51 0 0
51.1 0 0
51.2 0 0
51.3 0 0
51.4 0 0
51.5 0 0
51.6 0 0
51.7 0 0
51.8 0 0
51.9 0 0
52 0 0
52.1 0 0
52.2 0 0
52.3 0 0
52.4 0 0
52.5 0 0
52.6 0 0
52.7 0 0
52.8 0 0
52.9 0 0
53 0 0
53.1 0 0
53.2 0 0
53.3 0 0
53.4 0 0
53.5 0 0
53.6 0 0
53.7 0 0
53.8 0 0
53.9 0 0
54 0 0
54.1 0 0
54.2 0 0
54.3 0 0
54.4 0 0
54.5 0 0
54.6 0 0
54.7 0 0
54.8 0 0
54.9 0 0
55 0 0
55.1 0 0
55.2 0 0
55.3 0 0
55.4 0 0
55.5 0 0
55.6 0 0
55.7 0 0
55.8 0 0
55.9 0 0
56 0 0
56.1 0 0
56.2 0 0
56.3 0 0
56.4 0 0
56.5 0 0
56.6 0 0
56.7 0 0
56.8 0 0
56.9 0 0
57 0 0
57.1 0 0
57.2 0 0
57.3 0 0
57.4 0 0
57.5 0 0
57.6 0 0
57.7 0 0
57.8 0 0
57.9 0 0
58 0 0
58.1 0 0
58.2 0 0
58.3 0 0
58.4 0 0
58.5 0 0
58.6 0 0
58.7 0 0
58.8 0 0
58.9 0 0
59 0 0
59.1 0 0
59.2 0 0
59.3 0 0
59.4 0 0
59.5 0 0
59.6 0 0
59.7 0 0
59.8 0 0
59.9 0 0
60 0 0
60.1 0 0
60.2 0 0
60.3 0 0
60.4 0 0
60.5 0 0
60.6 0 0
60.7 0 0
60.8 0 0
60.9 0 0
61 0 0
61.1 0 0
61.2 0 0
61.3 0 0
61.4 0 0
61.5 0 0
61.6 0 0
61.7 0 0
61.8 0 0
61.9 0 0
62 0 0
62.1 0 0
62.2 0 0
62.3 0 0
62.4 0 0
62.5 0 0
62.6 0 0
62.7 0 0
62.8 0 0
62.9 0 0
63 0 0
63.1 0 0
63.2 0 0
63.3 0 0
63.4 0 0
63.5 0 0
63.6 0 0
63.7 0 0
63.8 0 0
63.9 0 0
64 0 0
64.1 0 0
64.2 0 0
64.3 0 0
64.4 0 0
64.5 0 0
64.6 0 0
64.7 0 0
64.8 0 0
64.9 0 0
65 0 0
65.1 0 0
65.2 0 0
65.3 0 0
65.4 0 0
65.5 0 0
65.6 0 0
65.7 0 0
65.8 0 0
65.9 0 0
66 0 0
66.1 0 0
66.2 0 0
66.3 0 0
66.4 0 0
66.5 0 0
66.6 0 0
66.7 0 0
66.8 0 0
66.9 0 0
67 0 0
67.1 0 0
67.2 0 0
67.3 0 0
67.4 0 0
67.5 0 0
67.6 0 0
67.7 0 0
67.8 0 0
67.9 0 0
68 0 0
68.1 0 0
68.2 0 0
68.3 0 0
68.4 0 0
68.5 0 0
68.6 0 0
68.7 0 0
68.8 0 0
68.9 0 0
69 0 0
69.1 0 0
69.2 0 0
69.3 0 0
69.4 0 0
69.5 0 0
69.6 0 0
69.7 0 0
69.8 0 0
69.9 0 0
70 0 0
70.1 0 0
70.2 0 0
70.3 0 0
70.4 0 0
70.5 0 0
70.6 0 0
70.7 0 0
70.8 0 0
70.9 0 0
71 0 0
71.1 0 0
71.2 0 0
71.3 0 0
71.4 0 0
71.5 0 0
71.6 0 0
71.7 0 0
71.8 0 0
71.9 0 0
72 0 0
72.1 0 0
72.2 0 0
72.3 0 0
72.4 0 0
72.5 0 0
72.6 0 0
72.7 0 0
72.8 0 0
72.9 0 0
73 0 0
73.1 0 0
73.2 0 0
73.3 0 0
73.4 0 0
73.5 0 0
73.6 0 0
73.7 0 0
73.8 0 0
73.9 0 0
74 0 0
74.1 0 0
74.2 0 0
74.3 0 0
74.4 0 0
74.5 0 0
74.6 0 0
74.7 0 0
74.8 0 0
74.9 0 0
75 0 0
75.1 0 0
75.2 0 0
75.3 0 0
75.4 0 0
75.5 0 0
75.6 0 0
75.7 0 0
75.8 0 0
75.9 0 0
76 0 0
76.1 0 0
76.2 0 0
76.3 0 0
76.4 0 0
76.5 0 0
76.6 0 0
76.7 0 0
76.8 0 0
76.9 0 0
77 0 0
77.1 0 0
77.2 0 0
77.3 0 0
77.4 0 0
77.5 0 0
77.6 0 0
77.7 0 0
77.8 0 0
77.9 0 0
78 0 0
78.1 0 0
78.2 0 0
78.3 0 0
78.4 0 0
78.5 0 0
78.6 0 0
78.7 0 0
78.8 0 0
78.9 0 0
79 0 0
79.1 0 0
79.2 0 0
79.3 0 0
79.4 0 0
79.5 0 0
79.6 0 0
79.7 0 0
79.8 0 0
79.9 0 0
80 0 0
80.1 0 0
80.2 0 0
80.3 0 0
80.4 0 0
80.5 0 0
80.6 0 0
80.7 0 0
80.8 0 0
80.9 0 0
81 0 0
81.1 0 0
81.2 0 0
81.3 0 0
81.4 0 0
81.5 0 0
81.6 0 0
81.7 0 0
81.8 0 0
81.9 0 0
82 0 0
82.1 0 0
82.2 0 0
82.3 0 0
82.4 0 0
82.5 0 0
82.6 0 0
82.7 0 0
82.8 0 0
82.9 0 0
83 0 0
83.1 0 0
83.2 0 0
83.3 0 0
83.4 0 0
83.5 0 0
83.6 0 0
83.7 0 0
83.8 0 0
83.9 0 0
84 0 0
84.1 0 0
84.2 0 0
84.3 0 0
84.4 0 0
84.5 0 0
84.6 0 0
84.7 0 0
84.8 0 0
84.9 0 0
85 0 0
85.1 0 0
85.2 0 0
85.3 0 0
85.4 0 0
85.5 0 0
85.6 0 0
85.7 0 0
85.8 0 0
85.9 0 0
86 0 0
86.1 0 0
86.2 0 0
86.3 0 0
86.4 0 0
86.5 0 0
86.6 0 0
86.7 0 0
86.8 0 0
86.9 0 0
87 0 0
87.1 0 0
87.2 0 0
87.3 0 0
87.4 0 0
87.5 0 0
87.6 0 0
87.7 0 0
87.8 0 0
87.9 0 0
88 0 0
88.1 0 0
88.2 0 0
88.3 0 0
88.4 0 0
88.5 0 0
88.6 0 0
88.7 0 0
88.8 0 0
88.9 0 0
89 0 0
89.1 0 0
89.2 0 0
89.3 0 0
89.4 0 0
89.5 0 0
89.6 0 0
89.7 0 0
89.8 0 0
89.9 0 0
90 0 0
90.1 0 0
90.2 0 0
90.3 0 0
90.4 0 0
90.5 0 0
90.6 0 0
90.7 0 0
90.8 0 0
90.9 0 0
91 0 0
91.1 0 0
91.2 0 0
91.3 0 0
91.4 0 0
91.5 0 0
91.6 0 0
91.7 0 0
91.8 0 0
91.9 0 0
92 0 0
92.1 0 0
92.2 0 0
92.3 0 0
92.4 0 0
92.5 0 0
92.6 0 0
92.7 0 0
92.8 0 0
92.9 0 0
93 0 0
93.1 0 0
93.2 0 0
93.3 0 0
93.4 0 0
93.5 0 0
93.6 0 0
93.7 0 0
93.8 0 0
93.9 0 0
94 0 0
94.1 0 0
94.2 0 0
94.3 0 0
94.4 0 0
94.5 0 0
94.6 0 0
94.7 0 0
94.8 0 0
94.9 0 0
95 0 0
95.1 0 0
95.2 0 0
95.3 0 0
95.4 0 0
95.5 0 0
95.6 0 0
95.7 0 0
95.8 0 0
95.9 0 0
96 0 0
96.1 0 0
96.2 0 0
96.3 0 0
96.4 0 0
96.5 0 0
96.6 0 0
96.7 0 0
96.8 0 0
96.9 0 0
97 0 0
97.1 0 0
97.2 0 0
97.3 0 0
97.4 0 0
97.5 0 0
97.6 0 0
97.7 0 0
97.8 0 0
97.9 0 0
98 0 0
98.1 0 0
98.2 0 0
98.3 0 0
98.4 0 0
98.5 0 0
98.6 0 0
98.7 0 0
98.8 0 0
98.9 0 0
99 0 0
99.1 0 0
99.2 0 0
99.3 0 0
99.4 0 0
99.5 0 0
99.6 0 0
99.7 0 0
99.8 0 0
99.9 0 0
100 0 0
100.1 0 0
100.2 0 0
100.3 0 0
100.4 0 0
100.5 0 0
100.6 0 0
100.7 0 0
100.8 0 0
100.9 0 0
101 0 0
101.1 0 0
101.2 0 0
101.3 0 0
101.4 0 0
101.5 0 0
101.6 0 0
101.7 0 0
101.8 0 0
101.9 0 0
102 0 0
102.1 0 0
102.2 0 0
102.3 0 0
102.4 0 0
102.5 0 0
102.6 0 0
102.7 0 0
102.8 0 0
102.9 0 0
103 0 0
103.1 0 0
103.2 0 0
103.3 0 0
103.4 0 0
103.5 0 0
103.6 0 0
103.7 0 0
103.8 0 0
103.9 0 0
104 0 0
104.1 0 0
104.2 0 0
104.3 0 0
104.4 0 0
104.5 0 0
104.6 0 0
104.7 0 0
104.8 0 0
104.9 0 0
105 0 0
105.1 0 0
105.2 0 0
105.3 0 0
105.4 0 0
105.5 0 0
105.6 0 0
105.7 0 0
105.8 0 0
105.9 0 0
106 0 0
106.1 0 0
106.2 0 0
106.3 0 0
106.4 0 0
106.5 0 0
106.6 0 0
106.7 0 0
106.8 0 0
106.9 0 0
107 0 0
107.1 0 0
107.2 0 0
107.3 0 0
107.4 0 0
107.5 0 0
107.6 0 0
107.7 0 0
107.8 0 0
107.9 0 0
108 0 0
108.1 0 0
108.2 0 0
108.3 0 0
108.4 0 0
108.5 0 0
108.6 0 0
108.7 0 0
108.8 0 0
108.9 0 0
109 0 0
109.1 0 0
109.2 0 0
109.3 0 0
109.4 0 0
109.5 0 0
109.6 0 0
109.7 0 0
109.8 0 0
109.9 0 0
110 0 0
110.1 0 0
110.2 0 0
110.3 0 0
110.4 0 0
110.5 0 0
110.6 0 0
110.7 0 0
110.8 0 0
110.9 0 0
111 0 0
111.1 0 0
111.2 0 0
111.3 0 0
111.4 0 0
111.5 0 0
111.6 0 0
111.7 0 0
111.8 0 0
111.9 0 0
112 0 0
[...]
POINT_DATA 83304

SCALARS pressure float 1
LOOKUP_TABLE default
0
0
0
0
0
0
0
0
0
0
0
0
0
0
0
0
0
0
0
0
0
0
0
0
0
0
0
0
0
0
0
0
0
0
0
0
0
0
0
0
0
0
0
0
0
0
0
0
0
0
0
0
0
0
0
0
0
0
0
0
0
0
0
0
0
0
0
0
0
0
0
0
0
0
0
0
0
0
0
0
0
0
0
0
0
0
0
0
0
0
0
0
0
0
0
0
0
0
0
0
0
0
0
0
0
0
0
0
0
0
0
0
0
0
0
0
0
0
0
0
0
0
0
0
0
0
0
0
0
0
0
0
0
0
0
0
0
0
0
0
0
0
0
0
0
0
0
0
0
0
0
0
0
0
0
0
0
0
0
0
0
0
0
0
0
0
0
0
0
0
0
0
0
0
0
0
0
0
0
0
0
0
0
0
0
0
0
0
0
0
0
0
0
0
0
0
0
0
0
0
0
0
0
0
0
0
0
0
0
0
0
0
0
0
0
0
0
0
0
0
0
0
0
0
0
0
0
0
0
0
0
0
0
0
0
0
0
0
0
0
0
0
0
0
0
0
0
0
0
0
0
0
0
0
0
0
0
0
0
0
0
0
0
0
0
0
0
0
0
0
0
0
0
0
0
0
0
0
0
0
0
0
0
0
0
0
0
0
0
0
0
0
0
0
0
0
0
0
0
0
0
0
0
0
0
0
0
0
0
0
0
0
0
0
0
0
0
0
0
0
0
0
0
0
0
0
0
0
0
0
0
0
0
0
0
0
0
0
0
0
0
0
0
0
0
0
0
0
0
0
0
0
0
0
0
0
0
0
0
0
0
0
0
0
0
0
0
0
0
0
0
0
0
0
0
0
0
0
0
0
0
0
0
0
0
0
0
0
0
0
0
0
0
0
0
0
0
0
0
0
0
0
0
0
0
0
0
0
0
0
0
0
0
0
0
0
0
0
0
0
0
0
0
0
0
0
0
0
0
0
0
0
0
0
0
0
0
0
0
0
0
0
0
0
0
0
0
0
0
0
0
0
0
0
0
0
0
0
0
0
0
0
0
0
0
0
0
0
0
0
0
0
0
0
0
0
0
0
0
0
0
0
0
0
0
0
0
0
0
0
0
0
0
0
0
0
0
0
0
0
0
0
0
0
0
0
0
0
0
0
0
0
0
0
0
0
0
0
0
0
0
0
0
0
0
0
0
0
0
0
0
0
0
0
0
0
0
0
0
0
0
0
0
0
0
0
0
0
0
0
0
0
0
0
0
0
0
0
0
0
0
0
0
0
0
0
0
0
0
0
0
0
0
0
0
0
0
0
0
0
0
0
0
0
0
0
0
0
0
0
0
0
0
0
0
0
0
0
0
0
0
0
0
0
0
0
0
0
0
0
0
0
0
0
0
0
0
0
0
0
0
0
0
0
0
0
0
0
0
0
0
0
0
0
0
0
0
0
0
0
0
0
0
0
0
0
0
0
0
0
0
0
0
0
0
0
0
0
0
0
0
0
0
0
0
0
0
0
0
0
0
0
0
0
0
0
0
0
0
0
0
0
0
0
0
0
0
0
0
0
0
0
0
0
0
0
0
0
0
0
0
0
0
0
0
0
0
0
0
0
0
0
0
0
0
0
0
0
0
0
0
0
0
0
0
0
0
0
0
0
0
0
0
0
0
0
0
0
0
0
0
0
0
0
0
0
0
0
0
0
0
0
0
0
0
0
0
0
0
0
0
0
0
0
0
0
0
0
0
0
0
0
0
0
0
0
0
0
0
0
0
0
0
0
0
0
0
0
0
0
0
0
0
0
0
0
0
0
0
0
0
0
0
0
0
0
0
0
0
0
0
0
0
0
0
0
0
0
0
0
0
0
0
0
0
0
0
0
0
0
0
0
0
0
0
0
0
0
0
0
0
0
0
0
0
0
0
0
0
0
0
0
0
0
0
0
0
0
0
0
0
0
0
0
0
0
0
0
0
0
0
0
0
0
0
0
0
0
0
0
0
0
0
0
0
0
0
0
0
0
0
0
0
0
0
0
0
0
0
0
0
0
0
0
0
0
0
0
0
0
0
0
0
0
0
0
0
0
0
0
0
0
0
0
0
0
0
0
0
0
0
0
0
0
0
0
0
0
0
0
0
0
0
0
0
0
0
0
0
0
0
0
0
0
0
0
0
0
0
0
0
0
0
0
0
0
0
0
0
0
0
0
0
0
0
0
0
0
0
0
0
0
0
0
0
0
0
0
0
0
0
0
0
0
0
0
0
0
0
0
0
0
0
0
0
0
0
0
0
0
0
0
0
0
0
0
0
0
0
0
0
0
0
0
0
0
0
0
0
0
0
0
0
0
0
0
0
0
0
0
0
0
0
0
0
0
0
0
0
0
0
0
0
0
0
0
0
0
0
0
0
0
0
0
0
0
0
0
0
0
0
0
0
0
0
0
0
0
0
0
0
0
0
0
0
0
0
0
0
0
0
0
0
0
0
0
0
0
0
0
0
0
0
0
0
0
0
0
0
0
0
0
0
0
0
0
0
0
0
0
0
0
0
0
0
0
0
0
0
0
0
0
0
0
0
0
0
0
0
0
0
0
0
0
0
0
0
0
0
0
0
0
0
0
0
0
0
0
0
0
0
0
0
0
0
0
0
0
0
0
0
0
0
0
0
0
0
0
0
0
0
0
0
0
0
0
0
0
0
0
0
0
0
0
0
0
0
0
0
0
0
0
0
0
0
0
0
0
0
0
0
0
0
0
0
0
0
0
0
0
0
0
0
0
0
0
0
0
0
0
0
0
0
0
0
0
0
0
0
0
0
0
0
0
0
0
0
0
0
0
0
0
0
0
0
0
0
0
0
0
0
0
0
0
0
0
0
0
0
0
0
0
0
0
0
0
0
0
0
0
0
0
0
0
0
0
0
0
0
0
0
0
0
0
0
0
0
0
0
0
0
0
0
0
0
0
0
0
0
0
0
0
0
0
0
0
0
0
0
0
0
0
0
0
0
0
0
0
0
0
0
0
0
0
0
0
0
0
0
0
0
0
0
0
0
0
0
0
0
0
0
0
0
0
0
0
0
0
0
0
0
0
0
0
0
0
0
0
0
0
0
0
0
0
0
0
0
0
0
0
0
0
0
0
0
0
0
0
0
0
0
0
0
0
0
0
0
0
0
0
0
0
0
0
0
0
0
0
0
0
0
0
0
0
0
0
0
0
0
0
0
0
0
0
0
0
0
0
0
0
0
0
0
0
0
0
0
0
0
0
0
0
0
0
0
0
0
0
0
0
0
0
0
0
0
0
0
0
0
0
0
0
0
0
0
0
0
0
0
0
0
0
0
0
0
0
0
0
0
0
0
0
0
0
0
0
0
0
0
0
0
0
0
0
0
0
0
0
0
0
0
0
0
0
0
0
0
0
0
0
0
0
0
0
0
0
0
0
0
0
0
0
0
0
0
0
0
0
0
0
0
0
0
0
0
0
0
0
0
0
0
0
0
0
0
0
0
0
0
0
0
0
0
0
0
0
0
0
0
0
0
0
0
0
0
0
0
0
0
0
0
0
0
0
0
0
0
0
0
0
0
0
0
0
0
0
0
0
0
0
0
0
0
0
0
0
0
0
0
0
0
0
0
0.0776415
0.052903
0.0436505
0.0357426
0.03048
0.0271088
0.0248019
0.023116
0.0218008
0.0207277
0.0198235
0.0190436
0.0183596
0.0177519
0.0172066
0.0167134
0.0162643
0.0158532
0.0154749
0.0151254
0.0148011
0.0144993
0.0142174
0.0139533
0.0137051
0.0134714
0.0132506
0.0130416
0.0128433
0.0126548
0.0124753
0.0123039
0.0121401
0.0119832
0.0118327
0.0116882
0.0115492
0.0114154
0.0112864
0.011162
0.0110417
0.0109256
0.0108132
0.0107046
0.0105994
0.0104977
0.0103994
0.0103042
0.0102122
0.0101232
0.010037
0.00995324
0.00987154
0.00979128
0.00971166
0.00963168
0.00955013
0.0094657
0.00937703
0.00928292
0.00918252
0.00907568
0.00896323
0.00884738
0.00873203
0.00862306
0.00852834
0.00845765
0.00842219
0.00843373
0.00850342
0.00864014
0.00884862
0.00912735
0.00946646
0.00984586
0.0102338
0.0105861
0.0108466
0.0109487
0.0108193
0.0103846
0.00957929
0.00835723
0.00670215
0.00464334
0.00227124
-0.000250745
-0.00268569
-0.00474539
-0.00612863
-0.00656292
-0.00583709
-0.00382322
-0.000485142
0.00413364
0.00992145
0.0167175
0.0243316
0.0325589
0.041193
0.0500277
0.0588523
0.0674675
0.0756907
0.0833186
0.0901224
0.0958963
0.100505
0.103877
0.105963
0.10673
0.106175
0.104344
0.101336
0.0972951
0.0923971
0.086838
0.0808225
0.0745508
0.0682062
0.0619452
0.0558929
0.0501419
0.0447548
0.039769
0.0352008
0.0310511
0.0273087
0.0239544
0.020964
0.0183101
0.015964
0.013897
0.0120813
0.0104903
0.00909923
0.00788535
0.00682782
0.00590785
0.00510854
0.00441485
0.0038134
0.00329238
0.00284136
0.00245121
0.00211391
0.00182245
0.00157073
0.00135341
0.00116588
0.00100409
0.00086457
0.000744281
0.000640603
0.000551263
0.000474297
0.000408005
0.00035092
0.000301771
0.000259464
0.000223053
0.000191721
0.000164765
0.000141577
0.000121633
0.000104483
8.97379e-05
7.70617e-05
6.61661e-05
5.68022e-05
4.87561e-05
4.18433e-05
3.5905e-05
3.08047e-05
2.64247e-05
2.26639e-05
1.94352e-05
1.66638e-05
1.42852e-05
1.22442e-05
1.0493e-05
8.99078e-06
7.7023e-06
6.59735e-06
5.64992e-06
4.8377e-06
4.1415e-06
3.54485e-06
3.0336e-06
2.59561e-06
2.22043e-06
1.89912e-06
1.62399e-06
1.38845e-06
1.18683e-06
1.01429e-06
8.66649e-07
7.40349e-07
6.32324e-07
5.39952e-07
4.60979e-07
3.93478e-07
3.35794e-07
2.86512e-07
2.44421e-07
2.08482e-07
1.77802e-07
1.51614e-07
1.29253e-07
1.10151e-07
9.38237e-08
7.98645e-08
6.79315e-08
5.77355e-08
4.90264e-08
4.15843e-08
3.5217e-08
2.9766e-08
2.51153e-08
2.11954e-08
1.79741e-08
1.54317e-08
1.35238e-08
1.21463e-08
1.11187e-08
1.01983e-08
9.12934e-09
7.71597e-09
5.89334e-09
3.77061e-09
1.62248e-09
-1.76423e-10
-1.26011e-09
-1.39093e-09
-5.51228e-10
1.0259e-09
2.90143e-09
4.54109e-09
5.46026e-09
5.35945e-09
4.20903e-09
2.25773e-09
-3.73226e-11
-2.13707e-09
-3.56552e-09
-4.03154e-09
-3.4945e-09
-2.15918e-09
-4.0636e-10
1.31674e-09
2.61327e-09
3.22896e-09
3.09832e-09
2.33801e-09
1.19571e-09
-2.64465e-11
-1.05109e-09
-1.68699e-09
-1.86015e-09
-1.61179e-09
-1.06934e-09
-4.02097e-10
2.24737e-10
6.86465e-10
9.18837e-10
9.20105e-10
7.38413e-10
4.50547e-10
1.38881e-10
-1.27781e-10
-3.05947e-10
-3.80827e-10
-3.62596e-10
-2.78103e-10
-1.61024e-10
-4.30387e-11
5.22736e-11
1.12199e-10
1.34595e-10
1.25433e-10
9.53196e-11
5.60182e-11
1.77265e-11
-1.2531e-11
-3.13814e-11
-3.86883e-11
-3.65981e-11
-2.84135e-11
-1.75811e-11
-6.96791e-12
1.51669e-12
6.98504e-12
9.41136e-12
9.3531e-12
7.64949e-12
5.16574e-12
2.61868e-12
4.91027e-13
-9.7924e-13
-1.75849e-12
-1.9518e-12
-1.734e-12
-1.29205e-12
-7.85893e-13
-3.28651e-13
1.70199e-14
2.31772e-13
3.26942e-13
3.30944e-13
2.7763e-13
1.98083e-13
1.16068e-13
4.65882e-14
-3.39013e-15
-3.30317e-14
-4.53618e-14
-4.51981e-14
-3.75843e-14
-2.6813e-14
-1.59778e-14
-6.92167e-15
-4.28394e-16
3.4767e-15
5.217e-15
5.40477e-15
4.65694e-15
3.48769e-15
2.26423e-15
1.20694e-15
4.14821e-16
-9.91481e-17
-3.73087e-16
-4.6773e-16
-4.46484e-16
-3.63758e-16
-2.59933e-16
-1.60918e-16
-8.03212e-17
-2.27101e-17
1.30825e-17
3.11893e-17
3.66987e-17
3.43984e-17
2.81408e-17
2.06508e-17
1.36061e-17
7.85084e-18
3.64499e-18
8.93191e-19
-6.7606e-19
-1.38646e-18
-1.53954e-18
-1.37866e-18
-1.0791e-18
-7.53466e-19
-4.64317e-19
-2.38538e-19
-8.03788e-20
1.82817e-20
7.07071e-20
9.07844e-20
9.06041e-20
7.9495e-20
6.39538e-20
4.80419e-20
3.39593e-20
2.2619e-20
1.41346e-20
8.18807e-21
4.28173e-21
1.8936e-21
5.60165e-22
-8.96507e-23
-3.30095e-22
-3.49892e-22
-2.6977e-22
-1.60611e-22
-5.93449e-23
1.85302e-23
6.98617e-23
9.77178e-23
1.07575e-22
1.05166e-22
9.54281e-23
8.21311e-23
6.78824e-23
5.43057e-23
4.22766e-23
3.2151e-23
2.39541e-23
1.75234e-23
1.26089e-23
8.93668e-24
6.24627e-24
4.30963e-24
2.93761e-24
1.97968e-24
1.3198e-24
8.70913e-25
5.69111e-25
3.68436e-25
2.36392e-25
1.50369e-25
9.48573e-26
5.936e-26
3.68585e-26
2.27146e-26
1.3896e-26
8.44062e-27
5.09147e-27
3.05049e-27
1.81561e-27
1.07366e-27
6.30907e-28
3.68444e-28
2.13866e-28
1.23402e-28
7.07894e-29
4.03756e-29
2.28992e-29
1.29155e-29
7.24486e-30
4.04218e-30
2.24338e-30
1.23858e-30
6.80322e-31
3.71793e-31
2.0217e-31
1.09392e-31
5.89035e-32
3.15649e-32
1.68346e-32
8.93634e-33
4.72171e-33
2.48338e-33
1.30022e-33
6.77698e-34
3.51662e-34
1.81678e-34
9.34519e-35
4.7863e-35
2.44094e-35
1.23958e-35
6.26862e-36
3.15693e-36
1.58333e-36
7.90866e-37
3.9344e-37
1.94945e-37
9.62091e-38
4.72941e-38
2.31579e-38
1.12954e-38
5.48826e-39
2.65647e-39
1.28094e-39
6.1534e-40
2.94495e-40
1.4042e-40
6.67082e-41
3.15747e-41
1.48909e-41
6.99739e-42
3.27637e-42
1.52863e-42
7.10685e-43
3.29248e-43
1.52003e-43
6.99318e-44
3.20626e-44
1.46498e-44
6.67095e-45
3.02741e-45
1.36928e-45
6.17248e-46
2.7732e-46
1.24184e-46
5.5427e-47
2.46579e-47
1.0934e-47
4.83274e-48
2.12918e-48
9.35061e-49
4.09341e-49
1.7863e-49
7.77061e-50
3.36973e-50
1.45673e-50
6.27794e-51
2.6972e-51
1.15525e-51
4.93298e-52
2.10002e-52
8.91294e-53
3.77147e-53
1.5911e-53
6.6925e-54
2.80665e-54
1.17356e-54
4.89264e-55
2.0338e-55
8.42958e-56
3.48372e-56
1.43557e-56
5.89868e-57
2.4168e-57
9.87387e-58
4.02253e-58
1.63412e-58
6.61978e-59
2.67414e-59
1.07724e-59
4.32745e-60
1.73359e-60
6.92571e-61
2.75923e-61
1.09628e-61
4.34381e-62
1.71649e-62
6.7645e-63
2.65864e-63
1.04212e-63
4.07395e-64
1.58838e-64
6.17649e-65
2.39541e-65
9.26563e-66
3.57461e-66
1.37546e-66
5.2788e-67
2.02067e-67
7.71492e-68
2.93798e-68
1.11596e-68
4.22806e-69
1.5978e-69
6.02286e-70
2.26455e-70
8.4931e-71
3.1773e-71
1.18566e-71
4.41346e-72
1.63876e-72
6.06982e-73
2.24265e-73
8.26564e-74
3.03896e-74
1.11458e-74
4.0779e-75
1.48835e-75
5.41903e-76
1.96828e-76
7.13195e-77
2.57802e-77
9.29658e-78
3.34445e-78
1.20031e-78
4.29765e-79
1.53512e-79
5.47053e-80
1.9449e-80
6.89838e-81
2.44108e-81
8.618e-82
3.03545e-82
1.06668e-82
3.73974e-83
1.30813e-83
4.56524e-84
1.58958e-84
5.5222e-85
1.91405e-85
6.61926e-86
2.28393e-86
7.86282e-87
2.70083e-87
9.25638e-88
3.1653e-88
1.07999e-88
3.67671e-89
1.24893e-89
4.23305e-90
1.43157e-90
4.83076e-91
1.62655e-91
5.46473e-92
1.83199e-92
6.12819e-93
2.0455e-93
6.81282e-94
2.26421e-94
7.50884e-95
2.48483e-95
8.2052e-96
2.70368e-96
8.88988e-97
2.91685e-97
9.55018e-98
3.12027e-98
1.01732e-98
3.30984e-99
1.0746e-99
3.48159e-100
1.12565e-100
3.63181e-101
1.16934e-101
3.75716e-102
1.20471e-102
3.85485e-103
1.23095e-103
3.92268e-104
1.24749e-104
3.95915e-105
1.25396e-105
3.96355e-106
1.25027e-106
3.93591e-107
1.23655e-107
3.87705e-108
1.21317e-108
3.78852e-109
1.18073e-109
3.67254e-110
1.14003e-110
3.53189e-111
1.09204e-111
3.36984e-112
1.03783e-112
3.18996e-113
9.78578e-114
2.99609e-114
9.15515e-115
2.79209e-115
8.49865e-116
2.58183e-116
7.82823e-117
2.36898e-117
7.1552e-118
2.15698e-118
6.48991e-119
1.94894e-119
5.84157e-120
1.74756e-120
5.21804e-121
1.5551e-121
4.62581e-122
1.3734e-122
4.06991e-123
1.2038e-123
3.55395e-124
1.04726e-124
3.08022e-125
9.04274e-126
2.64978e-126
7.75017e-127
2.2626e-127
6.59326e-128
1.91774e-128
5.56775e-129
1.61351e-129
4.66728e-130
1.3476e-130
3.88386e-131
1.11731e-131
3.20844e-132
9.19652e-133
2.63127e-133
7.51487e-134
2.14236e-134
6.0965e-135
1.73176e-135
4.91035e-136
1.38983e-136
3.92673e-137
1.10745e-137
3.11779e-138
8.76183e-139
2.45794e-139
6.88303e-140
1.92406e-140
5.36898e-141
1.49554e-141
4.15856e-142
1.15432e-142
3.1985e-143
8.84722e-144
2.44293e-144
6.73375e-145
1.85289e-145
5.08963e-146
1.39563e-146
3.82038e-147
1.04398e-147
2.84792e-148
7.75563e-149
2.10844e-149
5.72218e-150
1.55031e-150
4.19309e-151
1.13217e-151
3.05174e-152
8.21196e-153
2.20602e-153
5.91614e-154
1.58392e-154
4.23347e-155
1.12961e-155
3.00906e-156
8.00212e-157
2.12448e-157
5.63084e-158
1.48994e-158
3.93589e-159
1.03799e-159
2.73291e-160
7.18351e-161
1.88508e-161
4.93862e-162
1.29171e-162
3.37296e-163
8.79314e-164
2.28857e-164
5.94666e-165
1.54267e-165
3.99543e-166
1.03311e-166
2.66701e-167
6.8738e-168
1.76875e-168
4.54393e-169
1.16546e-169
2.98443e-170
7.63003e-171
1.94757e-171
4.96322e-172
1.26281e-172
3.20788e-173
8.1359e-174
2.06015e-174
5.20839e-175
1.31467e-175
3.31315e-176
8.33638e-177
2.09424e-177
5.25281e-178
1.31544e-178
3.28903e-179
8.21073e-180
2.04651e-180
5.09292e-181
1.26544e-181
3.13932e-182
7.77597e-183
1.92308e-183
4.74859e-184
1.17074e-184
2.88191e-185
7.0832e-186
1.73824e-186
4.2591e-187
1.04198e-187
2.54526e-188
6.20782e-189
1.51175e-189
3.67585e-190
8.92423e-191
2.16332e-191
5.23614e-192
1.26544e-192
3.05358e-193
7.35734e-194
1.77001e-194
4.25179e-195
1.0198e-195
2.44231e-196
5.8403e-197
1.39449e-197
3.32465e-198
7.91453e-199
1.88129e-199
4.46514e-200
1.0582e-200
2.50412e-201
5.91691e-202
1.39602e-202
3.28883e-203
7.73661e-204
1.81726e-204
4.26228e-205
9.98223e-206
2.33439e-206
5.45106e-207
1.27101e-207
2.95927e-208
6.8799e-209
1.59715e-209
3.70232e-210
8.5698e-211
1.98077e-211
4.5716e-212
1.05359e-212
2.42463e-213
5.57173e-214
1.27852e-214
2.92954e-215
6.70292e-216
1.53145e-216
3.49398e-217
7.96e-218
1.81086e-218
4.1137e-219
9.33171e-220
2.11383e-220
4.78145e-221
1.08002e-221
2.43605e-222
5.48687e-223
1.23409e-223
2.77176e-224
6.21655e-225
1.39229e-225
3.11386e-226
6.95436e-227
1.55097e-227
3.45415e-228
7.68192e-229
1.70604e-229
3.78359e-230
8.37935e-231
1.85315e-231
4.09268e-232
9.02609e-233
1.98787e-233
4.37195e-234
9.60196e-235
2.10593e-235
4.61241e-236
1.00882e-236
2.20343e-237
4.80604e-238
1.04684e-238
2.27706e-239
4.94623e-240
1.07295e-240
2.3243e-241
5.02817e-242
1.08627e-242
2.34353e-243
5.04911e-244
1.08635e-244
2.33418e-245
5.00853e-246
1.07324e-246
2.29668e-247
4.90812e-248
1.04748e-248
2.23249e-249
4.75172e-250
1.01002e-250
2.14399e-251
4.54503e-252
9.62208e-253
2.03433e-253
4.29529e-254
9.05704e-255
1.90722e-255
4.01087e-256
8.42363e-257
1.76679e-257
3.70078e-258
7.74156e-259
1.61729e-259
3.37425e-260
7.03059e-261
1.46297e-261
3.04024e-262
6.30971e-263
1.3078e-263
2.7071e-264
5.59628e-265
1.15538e-265
2.38225e-266
4.90547e-267
1.00881e-267
2.07192e-268
4.24983e-269
8.70576e-270
1.78106e-270
3.63907e-271
7.42573e-272
1.51331e-272
3.08003e-273
6.26072e-274
1.27097e-274
2.57683e-275
5.2177e-276
1.05515e-276
2.13107e-277
4.29855e-278
8.65949e-279
1.74224e-279
3.50083e-280
7.02555e-281
1.40811e-281
2.81866e-282
5.63504e-283
1.12513e-283
2.24365e-284
4.46849e-285
8.88827e-286
1.76574e-286
3.50338e-287
6.94228e-288
1.37395e-288
2.71578e-289
5.36134e-290
1.05708e-290
2.08161e-291
4.094e-292
8.04181e-293
1.57768e-293
3.09131e-294
6.04958e-295
1.18241e-295
2.30819e-296
4.50026e-297
8.76324e-298
1.70433e-298
3.31061e-299
6.42281e-300
1.24453e-300
2.40853e-301
4.65548e-302
8.98759e-303
1.73296e-303
3.33734e-304
6.4192e-305
1.23319e-305
2.36618e-306
4.53456e-307
8.67948e-308
1.65929e-308
3.16828e-309
6.0422e-310
1.15091e-310
2.18957e-311
4.16055e-312
7.89618e-313
1.49678e-313
2.83384e-314
5.3588e-315
1.01213e-315
1.90934e-316
3.59755e-317
6.77033e-318
1.2726e-318
2.3892e-319
4.47969e-320
8.39418e-321
1.57113e-321
2.91499e-322
4.94066e-323
4.94066e-324
0
0
0
0
0
0
0
0
0
0
0
0
0
0
0
0
0
0
0
0
0
0
0
0
0
0
0
0
0
0
0
0
0
0
0
0
0
0
0
0
0
0
0
0
0
0
0
0
0
0
0
0
0
0
0
0
0
0
0
0
0
0
0
0
0
0
0
0
0
0
0
0
0
0
0
0
0
0
0
0
0
0
0
0
0
0
0
0
0
0
0
0
0
0
0
0
0
0
0
0
0
0
0
0
0
0
0
0
0
0
0
0
0
0
0
0
0
0
0
0
0
0
0
0
0
0
0
0
0
0
0
0
0
0
0
0
0
0
0
0
0
0
0
0
0
0
0
0
0
0
0
0
0
0
0
0
0
0
0
0
0
0
0
0
0
0
0
0
0
0
0
0
0
0
0
0
0
0
0
0
0
0
0
0
0
0
0
0
0
0
0
0
0
0
0
0
0
0
0
0
0
0
0
0
0
0
0
0
0
0
0
0
0
0
0
0
0
0
0
0
0
0
0
0
0
0
0
0
0
0
0
0
0
0
0
0
0
0
0
0
0
0
0
0
0
0
0
0
0
0
0
0
0
0
0
0
0
0
0
0
0
0
0
0
0
0
0
0
0
0
0
0
0
0
0
0
0
0
0
0
0
0
0
0
0
0
0
0
0
0
0
0
0
0
0
0
0
0
0
0
0
0
0
0
0
0
0
0
0
0
0
0
0
0
0
0
0
0
0
0
0
0
0
0
0
0
0
0
0
0
0
0
0
0
0
0
0
0
0
0
0
0
0
0
0
0
0
0
0
0
0
0
0
0
0
0
0
0
0
0
0
0
0
0
0
0
0
0
0
0
0
0
0
0
0
0
0
0
0
0
0
0
0
0
0
0
0
0
0
0
0
0
0
0
0
0
0
0
0
0
0
0
0
0
0
0
0
0
0
0
0
0
0
0
0
0
0
0
0
0
0
0
0
0
0
0
0
0
0
0
0
0
0
0
0
0
0
0
0
0
0
0
0
0
0
0
0
0
0
0
0
0
0
0
0
0
0
0
0
0
0
0
0
0
0
0
0
0
0
0
0
0
0
0
0
0
0
0
0
0
0
0
0
0
0
0
0
0
0
0
0
0
0
0
0
0
0
0
0
0
0
0
0
0
0
0
0
0
0
0
0
0
0
0
0
0
0
0
0
0
0
0
0
0
0
0
0
0
0
0
0
0
0
0
0
0
0
0
0
0
0
0
0
0
0
0
0
0
0
0
0
0
0
0
0
0
0
0
0
0
0
0
0
0
0
0
0
0
0
0
0
0
0
0
0
0
0
0
0
0
0
0
0
0
0
0
0
0
0
0
0
0
0
0
0
0
0
0
0
0
0
0
0
0
0
0
0
0
0
0
0
0
0
0
0
0
0
0
0
0
0
0
0
0
0
0
0
0
0
0
0
0
0
0
0
0
0
0
0.062787
0.0345542
0.0299574
0.025277
0.0221391
0.0200069
0.0184495
0.0172639
0.0163155
0.0155312
0.0148652
0.0142884
0.013781
0.0133294
0.0129237
0.0125563
0.0122216
0.0119149
0.0116326
0.0113716
0.0111293
0.0109037
0.0106929
0.0104953
0.0103096
0.0101346
0.00996924
0.00981271
0.00966417
0.00952293
0.00938836
0.00925992
0.00913712
0.00901951
0.00890671
0.00879836
0.00869416
0.00859381
0.00849708
0.00840373
0.00831357
0.00822643
0.00814217
0.00806065
0.00798179
0.0079055
0.00783171
0.00776035
0.00769136
0.00762462
0.00756001
0.00749731
0.0074362
0.00737625
0.00731687
0.00725731
0.00719668
0.00713396
0.00706812
0.00699819
0.00692345
0.00684366
0.00675929
0.00667182
0.006584
0.00650002
0.00642566
0.00636816
0.00633597
0.00633809
0.00638324
0.00647864
0.00662859
0.00683289
0.0070852
0.00737165
0.00766964
0.00794727
0.00816355
0.00826941
0.0082102
0.00792977
0.0073766
0.0065115
0.00531491
0.00379828
0.00201734
8.24086e-05
-0.00183604
-0.00351901
-0.00472797
-0.00523913
-0.00487334
-0.00351578
-0.00113049
0.00224785
0.00652591
0.011566
0.0172025
0.023256
0.0295465
0.0358954
0.042128
0.0480873
0.0536418
0.0586638
0.0630262
0.06663
0.069427
0.0714089
0.0725817
0.0729552
0.0725503
0.0714067
0.0695831
0.0671524
0.0641978
0.0608105
0.0570892
0.053137
0.0490576
0.0449488
0.0408976
0.0369761
0.03324
0.0297288
0.0264677
0.0234693
0.0207363
0.018264
0.0160418
0.0140555
0.0122888
0.0107238
0.00934265
0.00812746
0.00706126
0.00612798
0.00531275
0.00460191
0.00398307
0.00344507
0.00297789
0.00257266
0.00222147
0.00191738
0.00165425
0.00142671
0.00123006
0.00106019
0.000913529
0.00078695
0.000677745
0.000583562
0.00050236
0.000432368
0.000372056
0.000320098
0.000275346
0.000236809
0.000203632
0.000175074
0.000150496
0.000129348
0.000111155
9.5505e-05
8.2046e-05
7.04729e-05
6.05229e-05
5.19697e-05
4.46185e-05
3.83012e-05
3.28732e-05
2.82101e-05
2.42047e-05
2.07647e-05
1.78108e-05
1.52747e-05
1.30975e-05
1.12289e-05
9.62528e-06
8.24932e-06
7.06886e-06
6.0563e-06
5.1879e-06
4.44324e-06
3.80481e-06
3.25753e-06
2.78847e-06
2.38651e-06
2.04212e-06
1.7471e-06
1.49442e-06
1.27804e-06
1.09278e-06
9.34183e-07
7.98444e-07
6.82288e-07
5.8291e-07
4.97904e-07
4.25207e-07
3.63049e-07
3.09915e-07
2.64503e-07
2.25702e-07
1.92557e-07
1.64256e-07
1.40098e-07
1.1948e-07
1.01881e-07
8.68523e-08
7.4009e-08
6.30266e-08
5.36345e-08
4.56059e-08
3.87468e-08
3.28853e-08
2.78673e-08
2.35585e-08
1.98545e-08
1.66898e-08
1.40397e-08
1.19072e-08
1.02948e-08
9.16788e-09
8.42594e-09
7.89457e-09
7.34998e-09
6.57335e-09
5.42011e-09
3.87986e-09
2.10184e-09
3.7016e-10
-9.70169e-10
-1.61725e-09
-1.4141e-09
-4.1395e-10
1.11524e-09
2.75249e-09
4.03517e-09
4.58714e-09
4.22449e-09
3.00695e-09
1.21966e-09
-7.07842e-10
-2.32056e-09
-3.25901e-09
-3.34826e-09
-2.63193e-09
-1.34574e-09
1.57314e-10
1.50564e-09
2.40287e-09
2.69238e-09
2.37911e-09
1.60806e-09
6.10923e-10
-3.61307e-10
-1.1005e-09
-1.4836e-09
-1.48748e-09
-1.17748e-09
-6.76833e-10
-1.28087e-10
3.42852e-10
6.51799e-10
7.66732e-10
7.04118e-10
5.14964e-10
2.66063e-10
2.18644e-11
-1.68991e-10
-2.80479e-10
-3.09369e-10
-2.7034e-10
-1.88394e-10
-9.09438e-11
-1.42666e-12
6.45529e-11
1.00366e-10
1.07284e-10
9.202e-11
6.3821e-11
3.18524e-11
3.35841e-12
-1.72384e-11
-2.83864e-11
-3.0848e-11
-2.68393e-11
-1.91389e-11
-1.03619e-11
-2.49683e-12
3.28319e-12
6.58439e-12
7.61308e-12
6.93645e-12
5.25214e-12
3.21003e-12
1.30421e-12
-1.67407e-13
-1.09123e-12
-1.4947e-12
-1.49106e-12
-1.22745e-12
-8.45197e-13
-4.55619e-13
-1.30434e-13
9.68436e-14
2.22822e-13
2.63539e-13
2.4418e-13
1.9101e-13
1.26199e-13
6.54e-14
1.74702e-14
-1.44564e-14
-3.12717e-14
-3.61383e-14
-3.30228e-14
-2.56728e-14
-1.70466e-14
-9.11608e-15
-2.92613e-15
1.20574e-15
3.44322e-15
4.20264e-15
3.97552e-15
3.21259e-15
2.26391e-15
1.36197e-15
6.3244e-16
1.18696e-16
-1.90021e-16
-3.33373e-16