# vtk DataFile Version 2.0
FlowField
ASCII
DATASET STRUCTURED_GRID
DIMENSIONS 1602 1 52
POINTS 83304 float
0 0 0
0.1 0 0
0.2 0 0
0.3 0 0
0.4 0 0
0.5 0 0
0.6 0 0
0.7 0 0
0.8 0 0
0.9 0 0
1 0 0
1.1 0 0
1.2 0 0
1.3 0 0
1.4 0 0
1.5 0 0
1.6 0 0
1.7 0 0
1.8 0 0
1.9 0 0
2 0 0
2.1 0 0
2.2 0 0
2.3 0 0
2.4 0 0
2.5 0 0
2.6 0 0
2.7 0 0
2.8 0 0
2.9 0 0
3 0 0
3.1 0 0
3.2 0 0
3.3 0 0
3.4 0 0
3.5 0 0
3.6 0 0
3.7 0 0
3.8 0 0
3.9 0 0
4 0 0
4.1 0 0
4.2 0 0
4.3 0 0
4.4 0 0
4.5 0 0
4.6 0 0
4.7 0 0
4.8 0 0
4.9 0 0
5 0 0
5.1 0 0
5.2 0 0
5.3 0 0
5.4 0 0
5.5 0 0
5.6 0 0
5.7 0 0
5.8 0 0
5.9 0 0
6 0 0
6.1 0 0
6.2 0 0
6.3 0 0
6.4 0 0
6.5 0 0
6.6 0 0
6.7 0 0
6.8 0 0
6.9 0 0
7 0 0
7.1 0 0
7.2 0 0
7.3 0 0
7.4 0 0
7.5 0 0
7.6 0 0
7.7 0 0
7.8 0 0
7.9 0 0
8 0 0
8.1 0 0
8.2 0 0
8.3 0 0
8.4 0 0
8.5 0 0
8.6 0 0
8.7 0 0
8.8 0 0
8.9 0 0
9 0 0
9.1 0 0
9.2 0 0
9.3 0 0
9.4 0 0
9.5 0 0
9.6 0 0
9.7 0 0
9.8 0 0
9.9 0 0
10 0 0
10.1 0 0
10.2 0 0
10.3 0 0
10.4 0 0
10.5 0 0
10.6 0 0
10.7 0 0
10.8 0 0
10.9 0 0
11 0 0
11.1 0 0
11.2 0 0
11.3 0 0
11.4 0 0
11.5 0 0
11.6 0 0
11.7 0 0
11.8 0 0
11.9 0 0
12 0 0
12.1 0 0
12.2 0 0
12.3 0 0
12.4 0 0
12.5 0 0
12.6 0 0
12.7 0 0
12.8 0 0
12.9 0 0
13 0 0
13.1 0 0
13.2 0 0
13.3 0 0
13.4 0 0
13.5 0 0
13.6 0 0
13.7 0 0
13.8 0 0
13.9 0 0
14 0 0
14.1 0 0
14.2 0 0
14.3 0 0
14.4 0 0
14.5 0 0
14.6 0 0
14.7 0 0
14.8 0 0
14.9 0 0
15 0 0
15.1 0 0
15.2 0 0
15.3 0 0
15.4 0 0
15.5 0 0
15.6 0 0
15.7 0 0
15.8 0 0
15.9 0 0
16 0 0
16.1 0 0
16.2 0 0
16.3 0 0
16.4 0 0
16.5 0 0
16.6 0 0
16.7 0 0
16.8 0 0
16.9 0 0
17 0 0
17.1 0 0
17.2 0 0
17.3 0 0
17.4 0 0
17.5 0 0
17.6 0 0
17.7 0 0
17.8 0 0
17.9 0 0
18 0 0
18.1 0 0
18.2 0 0
18.3 0 0
18.4 0 0
18.5 0 0
18.6 0 0
18.7 0 0
18.8 0 0
18.9 0 0
19 0 0
19.1 0 0
19.2 0 0
19.3 0 0
19.4 0 0
19.5 0 0
19.6 0 0
19.7 0 0
19.8 0 0
19.9 0 0
20 0 0
20.1 0 0
20.2 0 0
20.3 0 0
20.4 0 0
20.5 0 0
20.6 0 0
20.7 0 0
20.8 0 0
20.9 0 0
21 0 0
21.1 0 0
21.2 0 0
21.3 0 0
21.4 0 0
21.5 0 0
21.6 0 0
21.7 0 0
21.8 0 0
21.9 0 0
22 0 0
22.1 0 0
22.2 0 0
22.3 0 0
22.4 0 0
22.5 0 0
22.6 0 0
22.7 0 0
22.8 0 0
22.9 0 0
23 0 0
23.1 0 0
23.2 0 0
23.3 0 0
23.4 0 0
23.5 0 0
23.6 0 0
23.7 0 0
23.8 0 0
23.9 0 0
24 0 0
24.1 0 0
24.2 0 0
24.3 0 0
24.4 0 0
24.5 0 0
24.6 0 0
24.7 0 0
24.8 0 0
24.9 0 0
25 0 0
25.1 0 0
25.2 0 0
25.3 0 0
25.4 0 0
25.5 0 0
25.6 0 0
25.7 0 0
25.8 0 0
25.9 0 0
26 0 0
26.1 0 0
26.2 0 0
26.3 0 0
26.4 0 0
26.5 0 0
26.6 0 0
26.7 0 0
26.8 0 0
26.9 0 0
27 0 0
27.1 0 0
27.2 0 0
27.3 0 0
27.4 0 0
27.5 0 0
27.6 0 0
27.7 0 0
27.8 0 0
27.9 0 0
28 0 0
28.1 0 0
28.2 0 0
28.3 0 0
28.4 0 0
28.5 0 0
28.6 0 0
28.7 0 0
28.8 0 0
28.9 0 0
29 0 0
29.1 0 0
29.2 0 0
29.3 0 0
29.4 0 0
29.5 0 0
29.6 0 0
29.7 0 0
29.8 0 0
29.9 0 0
30 0 0
30.1 0 0
30.2 0 0
30.3 0 0
30.4 0 0
30.5 0 0
30.6 0 0
30.7 0 0
30.8 0 0
30.9 0 0
31 0 0
31.1 0 0
31.2 0 0
31.3 0 0
31.4 0 0
31.5 0 0
31.6 0 0
31.7 0 0
31.8 0 0
31.9 0 0
32 0 0
32.1 0 0
32.2 0 0
32.3 0 0
32.4 0 0
32.5 0 0
32.6 0 0
32.7 0 0
32.8 0 0
32.9 0 0
33 0 0
33.1 0 0
33.2 0 0
33.3 0 0
33.4 0 0
33.5 0 0
33.6 0 0
33.7 0 0
33.8 0 0
33.9 0 0
34 0 0
34.1 0 0
34.2 0 0
34.3 0 0
34.4 0 0
34.5 0 0
34.6 0 0
34.7 0 0
34.8 0 0
34.9 0 0
35 0 0
35.1 0 0
35.2 0 0
35.3 0 0
35.4 0 0
35.5 0 0
35.6 0 0
35.7 0 0
35.8 0 0
35.9 0 0
36 0 0
36.1 0 0
36.2 0 0
36.3 0 0
36.4 0 0
36.5 0 0
36.6 0 0
36.7 0 0
36.8 0 0
36.9 0 0
37 0 0
37.1 0 0
37.2 0 0
37.3 0 0
37.4 0 0
37.5 0 0
37.6 0 0
37.7 0 0
37.8 0 0
37.9 0 0
38 0 0
38.1 0 0
38.2 0 0
38.3 0 0
38.4 0 0
38.5 0 0
38.6 0 0
38.7 0 0
38.8 0 0
38.9 0 0
39 0 0
39.1 0 0
39.2 0 0
39.3 0 0
39.4 0 0
39.5 0 0
39.6 0 0
39.7 0 0
39.8 0 0
39.9 0 0
40 0 0
40.1 0 0
40.2 0 0
40.3 0 0
40.4 0 0
40.5 0 0
40.6 0 0
40.7 0 0
40.8 0 0
40.9 0 0
41 0 0
41.1 0 0
41.2 0 0
41.3 0 0
41.4 0 0
41.5 0 0
41.6 0 0
41.7 0 0
41.8 0 0
41.9 0 0
42 0 0
42.1 0 0
42.2 0 0
42.3 0 0
42.4 0 0
42.5 0 0
42.6 0 0
42.7 0 0
42.8 0 0
42.9 0 0
43 0 0
43.1 0 0
43.2 0 0
43.3 0 0
43.4 0 0
43.5 0 0
43.6 0 0
43.7 0 0
43.8 0 0
43.9 0 0
44 0 0
44.1 0 0
44.2 0 0
44.3 0 0
44.4 0 0
44.5 0 0
44.6 0 0
44.7 0 0
44.8 0 0
44.9 0 0
45 0 0
45.1 0 0
45.2 0 0
45.3 0 0
45.4 0 0
45.5 0 0
45.6 0 0
45.7 0 0
45.8 0 0
45.9 0 0
46 0 0
46.1 0 0
46.2 0 0
46.3 0 0
46.4 0 0
46.5 0 0
46.6 0 0
46.7 0 0
46.8 0 0
46.9 0 0
47 0 0
47.1 0 0
47.2 0 0
47.3 0 0
47.4 0 0
47.5 0 0
47.6 0 0
47.7 0 0
47.8 0 0
47.9 0 0
48 0 0
48.1 0 0
48.2 0 0
48.3 0 0
48.4 0 0
48.5 0 0
48.6 0 0
48.7 0 0
48.8 0 0
48.9 0 0
49 0 0
49.1 0 0
49.2 0 0
49.3 0 0
49.4 0 0
49.5 0 0
49.6 0 0
49.7 0 0
49.8 0 0
49.9 0 0
50 0 0
50.1 0 0
50.2 0 0
50.3 0 0
50.4 0 0
50.5 0 0
50.6 0 0
50.7 0 0
50.8 0 0
50.9 0 0
51 0 0
51.1 0 0
51.2 0 0
51.3 0 0
51.4 0 0
51.5 0 0
51.6 0 0
51.7 0 0
51.8 0 0
51.9 0 0
52 0 0
52.1 0 0
52.2 0 0
52.3 0 0
52.4 0 0
52.5 0 0
52.6 0 0
52.7 0 0
52.8 0 0
52.9 0 0
53 0 0
53.1 0 0
53.2 0 0
53.3 0 0
53.4 0 0
53.5 0 0
53.6 0 0
53.7 0 0
53.8 0 0
53.9 0 0
54 0 0
54.1 0 0
54.2 0 0
54.3 0 0
54.4 0 0
54.5 0 0
54.6 0 0
54.7 0 0
54.8 0 0
54.9 0 0
55 0 0
55.1 0 0
55.2 0 0
55.3 0 0
55.4 0 0
55.5 0 0
55.6 0 0
55.7 0 0
55.8 0 0
55.9 0 0
56 0 0
56.1 0 0
56.2 0 0
56.3 0 0
56.4 0 0
56.5 0 0
56.6 0 0
56.7 0 0
56.8 0 0
56.9 0 0
57 0 0
57.1 0 0
57.2 0 0
57.3 0 0
57.4 0 0
57.5 0 0
57.6 0 0
57.7 0 0
57.8 0 0
57.9 0 0
58 0 0
58.1 0 0
58.2 0 0
58.3 0 0
58.4 0 0
58.5 0 0
58.6 0 0
58.7 0 0
58.8 0 0
58.9 0 0
59 0 0
59.1 0 0
59.2 0 0
59.3 0 0
59.4 0 0
59.5 0 0
59.6 0 0
59.7 0 0
59.8 0 0
59.9 0 0
60 0 0
60.1 0 0
60.2 0 0
60.3 0 0
60.4 0 0
60.5 0 0
60.6 0 0
60.7 0 0
60.8 0 0
60.9 0 0
61 0 0
61.1 0 0
61.2 0 0
61.3 0 0
61.4 0 0
61.5 0 0
61.6 0 0
61.7 0 0
61.8 0 0
61.9 0 0
62 0 0
62.1 0 0
62.2 0 0
62.3 0 0
62.4 0 0
62.5 0 0
62.6 0 0
62.7 0 0
62.8 0 0
62.9 0 0
63 0 0
63.1 0 0
63.2 0 0
63.3 0 0
63.4 0 0
63.5 0 0
63.6 0 0
63.7 0 0
63.8 0 0
63.9 0 0
64 0 0
64.1 0 0
64.2 0 0
64.3 0 0
64.4 0 0
64.5 0 0
64.6 0 0
64.7 0 0
64.8 0 0
64.9 0 0
65 0 0
65.1 0 0
65.2 0 0
65.3 0 0
65.4 0 0
65.5 0 0
65.6 0 0
65.7 0 0
65.8 0 0
65.9 0 0
66 0 0
66.1 0 0
66.2 0 0
66.3 0 0
66.4 0 0
66.5 0 0
66.6 0 0
66.7 0 0
66.8 0 0
66.9 0 0
67 0 0
67.1 0 0
67.2 0 0
67.3 0 0
67.4 0 0
67.5 0 0
67.6 0 0
67.7 0 0
67.8 0 0
67.9 0 0
68 0 0
68.1 0 0
68.2 0 0
68.3 0 0
68.4 0 0
68.5 0 0
68.6 0 0
68.7 0 0
68.8 0 0
68.9 0 0
69 0 0
69.1 0 0
69.2 0 0
69.3 0 0
69.4 0 0
69.5 0 0
69.6 0 0
69.7 0 0
69.8 0 0
69.9 0 0
70 0 0
70.1 0 0
70.2 0 0
70.3 0 0
70.4 0 0
70.5 0 0
70.6 0 0
70.7 0 0
70.8 0 0
70.9 0 0
71 0 0
71.1 0 0
71.2 0 0
71.3 0 0
71.4 0 0
71.5 0 0
71.6 0 0
71.7 0 0
71.8 0 0
71.9 0 0
72 0 0
72.1 0 0
72.2 0 0
72.3 0 0
72.4 0 0
72.5 0 0
72.6 0 0
72.7 0 0
72.8 0 0
72.9 0 0
73 0 0
73.1 0 0
73.2 0 0
73.3 0 0
73.4 0 0
73.5 0 0
73.6 0 0
73.7 0 0
73.8 0 0
73.9 0 0
74 0 0
74.1 0 0
74.2 0 0
74.3 0 0
74.4 0 0
74.5 0 0
74.6 0 0
74.7 0 0
74.8 0 0
74.9 0 0
75 0 0
75.1 0 0
75.2 0 0
75.3 0 0
75.4 0 0
75.5 0 0
75.6 0 0
75.7 0 0
75.8 0 0
75.9 0 0
76 0 0
76.1 0 0
76.2 0 0
76.3 0 0
76.4 0 0
76.5 0 0
76.6 0 0
76.7 0 0
76.8 0 0
76.9 0 0
77 0 0
77.1 0 0
77.2 0 0
77.3 0 0
77.4 0 0
77.5 0 0
77.6 0 0
77.7 0 0
77.8 0 0
77.9 0 0
78 0 0
78.1 0 0
78.2 0 0
78.3 0 0
78.4 0 0
78.5 0 0
78.6 0 0
78.7 0 0
78.8 0 0
78.9 0 0
79 0 0
79.1 0 0
79.2 0 0
79.3 0 0
79.4 0 0
79.5 0 0
79.6 0 0
79.7 0 0
79.8 0 0
79.9 0 0
80 0 0
80.1 0 0
80.2 0 0
80.3 0 0
80.4 0 0
80.5 0 0
80.6 0 0
80.7 0 0
80.8 0 0
80.9 0 0
81 0 0
81.1 0 0
81.2 0 0
81.3 0 0
81.4 0 0
81.5 0 0
81.6 0 0
81.7 0 0
81.8 0 0
81.9 0 0
82 0 0
82.1 0 0
82.2 0 0
82.3 0 0
82.4 0 0
82.5 0 0
82.6 0 0
82.7 0 0
82.8 0 0
82.9 0 0
83 0 0
83.1 0 0
83.2 0 0
83.3 0 0
83.4 0 0
83.5 0 0
83.6 0 0
83.7 0 0
83.8 0 0
83.9 0 0
84 0 0
84.1 0 0
84.2 0 0
84.3 0 0
84.4 0 0
84.5 0 0
84.6 0 0
84.7 0 0
84.8 0 0
84.9 0 0
85 0 0
85.1 0 0
85.2 0 0
85.3 0 0
85.4 0 0
85.5 0 0
85.6 0 0
85.7 0 0
85.8 0 0
85.9 0 0
86 0 0
86.1 0 0
86.2 0 0
86.3 0 0
86.4 0 0
86.5 0 0
86.6 0 0
86.7 0 0
86.8 0 0
86.9 0 0
87 0 0
87.1 0 0
87.2 0 0
87.3 0 0
87.4 0 0
87.5 0 0
87.6 0 0
87.7 0 0
87.8 0 0
87.9 0 0
88 0 0
88.1 0 0
88.2 0 0
88.3 0 0
88.4 0 0
88.5 0 0
88.6 0 0
88.7 0 0
88.8 0 0
88.9 0 0
89 0 0
89.1 0 0
89.2 0 0
89.3 0 0
89.4 0 0
89.5 0 0
89.6 0 0
89.7 0 0
89.8 0 0
89.9 0 0
90 0 0
90.1 0 0
90.2 0 0
90.3 0 0
90.4 0 0
90.5 0 0
90.6 0 0
90.7 0 0
90.8 0 0
90.9 0 0
91 0 0
91.1 0 0
91.2 0 0
91.3 0 0
91.4 0 0
91.5 0 0
91.6 0 0
91.7 0 0
91.8 0 0
91.9 0 0
92 0 0
92.1 0 0
92.2 0 0
92.3 0 0
92.4 0 0
92.5 0 0
92.6 0 0
92.7 0 0
92.8 0 0
92.9 0 0
93 0 0
93.1 0 0
93.2 0 0
93.3 0 0
93.4 0 0
93.5 0 0
93.6 0 0
93.7 0 0
93.8 0 0
93.9 0 0
94 0 0
94.1 0 0
94.2 0 0
94.3 0 0
94.4 0 0
94.5 0 0
94.6 0 0
94.7 0 0
94.8 0 0
94.9 0 0
95 0 0
95.1 0 0
95.2 0 0
95.3 0 0
95.4 0 0
95.5 0 0
95.6 0 0
95.7 0 0
95.8 0 0
95.9 0 0
96 0 0
96.1 0 0
96.2 0 0
96.3 0 0
96.4 0 0
96.5 0 0
96.6 0 0
96.7 0 0
96.8 0 0
96.9 0 0
97 0 0
97.1 0 0
97.2 0 0
97.3 0 0
97.4 0 0
97.5 0 0
97.6 0 0
97.7 0 0
97.8 0 0
97.9 0 0
98 0 0
98.1 0 0
98.2 0 0
98.3 0 0
98.4 0 0
98.5 0 0
98.6 0 0
98.7 0 0
98.8 0 0
98.9 0 0
99 0 0
99.1 0 0
99.2 0 0
99.3 0 0
99.4 0 0
99.5 0 0
99.6 0 0
99.7 0 0
99.8 0 0
99.9 0 0
100 0 0
100.1 0 0
100.2 0 0
100.3 0 0
100.4 0 0
100.5 0 0
100.6 0 0
100.7 0 0
100.8 0 0
100.9 0 0
101 0 0
101.1 0 0
101.2 0 0
101.3 0 0
101.4 0 0
101.5 0 0
101.6 0 0
101.7 0 0
101.8 0 0
101.9 0 0
102 0 0
102.1 0 0
102.2 0 0
102.3 0 0
102.4 0 0
102.5 0 0
102.6 0 0
102.7 0 0
102.8 0 0
102.9 0 0
103 0 0
103.1 0 0
103.2 0 0
103.3 0 0
103.4 0 0
103.5 0 0
103.6 0 0
103.7 0 0
103.8 0 0
103.9 0 0
104 0 0
104.1 0 0
104.2 0 0
104.3 0 0
104.4 0 0
104.5 0 0
104.6 0 0
104.7 0 0
104.8 0 0
104.9 0 0
105 0 0
105.1 0 0
105.2 0 0
105.3 0 0
105.4 0 0
105.5 0 0
105.6 0 0
105.7 0 0
105.8 0 0
105.9 0 0
106 0 0
106.1 0 0
106.2 0 0
106.3 0 0
106.4 0 0
106.5 0 0
106.6 0 0
106.7 0 0
106.8 0 0
106.9 0 0
107 0 0
107.1 0 0
107.2 0 0
107.3 0 0
107.4 0 0
107.5 0 0
107.6 0 0
107.7 0 0
107.8 0 0
107.9 0 0
108 0 0
108.1 0 0
108.2 0 0
108.3 0 0
108.4 0 0
108.5 0 0
108.6 0 0
108.7 0 0
108.8 0 0
108.9 0 0
109 0 0
109.1 0 0
109.2 0 0
109.3 0 0
109.4 0 0
109.5 0 0
109.6 0 0
109.7 0 0
109.8 0 0
109.9 0 0
110 0 0
110.1 0 0
110.2 0 0
110.3 0 0
110.4 0 0
110.5 0 0
110.6 0 0
110.7 0 0
110.8 0 0
110.9 0 0
111 0 0
111.1 0 0
111.2 0 0
111.3 0 0
111.4 0 0
111.5 0 0
111.6 0 0
111.7 0 0
111.8 0 0
111.9 0 0
112 0 0
[...]
POINT_DATA 83304

SCALARS pressure float 1
LOOKUP_TABLE default
0
0
0
0
0
0
0
0
0
0
0
0
0
0
0
0
0
0
0
0
0
0
0
0
0
0
0
0
0
0
0
0
0
0
0
0
0
0
0
0
0
0
0
0
0
0
0
0
0
0
0
0
0
0
0
0
0
0
0
0
0
0
0
0
0
0
0
0
0
0
0
0
0
0
0
0
0
0
0
0
0
0
0
0
0
0
0
0
0
0
0
0
0
0
0
0
0
0
0
0
0
0
0
0
0
0
0
0
0
0
0
0
0
0
0
0
0
0
0
0
0
0
0
0
0
0
0
0
0
0
0
0
0
0
0
0
0
0
0
0
0
0
0
0
0
0
0
0
0
0
0
0
0
0
0
0
0
0
0
0
0
0
0
0
0
0
0
0
0
0
0
0
0
0
0
0
0
0
0
0
0
0
0
0
0
0
0
0
0
0
0
0
0
0
0
0
0
0
0
0
0
0
0
0
0
0
0
0
0
0
0
0
0
0
0
0
0
0
0
0
0
0
0
0
0
0
0
0
0
0
0
0
0
0
0
0
0
0
0
0
0
0
0
0
0
0
0
0
0
0
0
0
0
0
0
0
0
0
0
0
0
0
0
0
0
0
0
0
0
0
0
0
0
0
0
0
0
0
0
0
0
0
0
0
0
0
0
0
0
0
0
0
0
0
0
0
0
0
0
0
0
0
0
0
0
0
0
0
0
0
0
0
0
0
0
0
0
0
0
0
0
0
0
0
0
0
0
0
0
0
0
0
0
0
0
0
0
0
0
0
0
0
0
0
0
0
0
0
0
0
0
0
0
0
0
0
0
0
0
0
0
0
0
0
0
0
0
0
0
0
0
0
0
0
0
0
0
0
0
0
0
0
0
0
0
0
0
0
0
0
0
0
0
0
0
0
0
0
0
0
0
0
0
0
0
0
0
0
0
0
0
0
0
0
0
0
0
0
0
0
0
0
0
0
0
0
0
0
0
0
0
0
0
0
0
0
0
0
0
0
0
0
0
0
0
0
0
0
0
0
0
0
0
0
0
0
0
0
0
0
0
0
0
0
0
0
0
0
0
0
0
0
0
0
0
0
0
0
0
0
0
0
0
0
0
0
0
0
0
0
0
0
0
0
0
0
0
0
0
0
0
0
0
0
0
0
0
0
0
0
0
0
0
0
0
0
0
0
0
0
0
0
0
0
0
0
0
0
0
0
0
0
0
0
0
0
0
0
0
0
0
0
0
0
0
0
0
0
0
0
0
0
0
0
0
0
0
0
0
0
0
0
0
0
0
0
0
0
0
0
0
0
0
0
0
0
0
0
0
0
0
0
0
0
0
0
0
0
0
0
0
0
0
0
0
0
0
0
0
0
0
0
0
0
0
0
0
0
0
0
0
0
0
0
0
0
0
0
0
0
0
0
0
0
0
0
0
0
0
0
0
0
0
0
0
0
0
0
0
0
0
0
0
0
0
0
0
0
0
0
0
0
0
0
0
0
0
0
0
0
0
0
0
0
0
0
0
0
0
0
0
0
0
0
0
0
0
0
0
0
0
0
0
0
0
0
0
0
0
0
0
0
0
0
0
0
0
0
0
0
0
0
0
0
0
0
0
0
0
0
0
0
0
0
0
0
0
0
0
0
0
0
0
0
0
0
0
0
0
0
0
0
0
0
0
0
0
0
0
0
0
0
0
0
0
0
0
0
0
0
0
0
0
0
0
0
0
0
0
0
0
0
0
0
0
0
0
0
0
0
0
0
0
0
0
0
0
0
0
0
0
0
0
0
0
0
0
0
0
0
0
0
0
0
0
0
0
0
0
0
0
0
0
0
0
0
0
0
0
0
0
0
0
0
0
0
0
0
0
0
0
0
0
0
0
0
0
0
0
0
0
0
0
0
0
0
0
0
0
0
0
0
0
0
0
0
0
0
0
0
0
0
0
0
0
0
0
0
0
0
0
0
0
0
0
0
0
0
0
0
0
0
0
0
0
0
0
0
0
0
0
0
0
0
0
0
0
0
0
0
0
0
0
0
0
0
0
0
0
0
0
0
0
0
0
0
0
0
0
0
0
0
0
0
0
0
0
0
0
0
0
0
0
0
0
0
0
0
0
0
0
0
0
0
0
0
0
0
0
0
0
0
0
0
0
0
0
0
0
0
0
0
0
0
0
0
0
0
0
0
0
0
0
0
0
0
0
0
0
0
0
0
0
0
0
0
0
0
0
0
0
0
0
0
0
0
0
0
0
0
0
0
0
0
0
0
0
0
0
0
0
0
0
0
0
0
0
0
0
0
0
0
0
0
0
0
0
0
0
0
0
0
0
0
0
0
0
0
0
0
0
0
0
0
0
0
0
0
0
0
0
0
0
0
0
0
0
0
0
0
0
0
0
0
0
0
0
0
0
0
0
0
0
0
0
0
0
0
0
0
0
0
0
0
0
0
0
0
0
0
0
0
0
0
0
0
0
0
0
0
0
0
0
0
0
0
0
0
0
0
0
0
0
0
0
0
0
0
0
0
0
0
0
0
0
0
0
0
0
0
0
0
0
0
0
0
0
0
0
0
0
0
0
0
0
0
0
0
0
0
0
0
0
0
0
0
0
0
0
0
0
0
0
0
0
0
0
0
0
0
0
0
0
0
0
0
0
0
0
0
0
0
0
0
0
0
0
0
0
0
0
0
0
0
0
0
0
0
0
0
0
0
0
0
0
0
0
0
0
0
0
0
0
0
0
0
0
0
0
0
0
0
0
0
0
0
0
0
0
0
0
0
0
0
0
0
0
0
0
0
0
0
0
0
0
0
0
0
0
0
0
0
0
0
0
0
0
0
0
0
0
0
0
0
0
0
0
0
0
0
0
0
0
0
0
0
0
0
0
0
0
0
0
0
0
0
0
0
0
0
0
0
0
0
0
0
0
0
0
0
0
0
0
0
0
0
0
0
0
0
0
0
0
0
0
0
0
0
0
0
0
0
0
0
0
0
0
0
0
0
0
0
0
0
0
0
0
0
0
0
0
0
0
0
0
0
0
0
0
0
0
0
0
0
0
0
0
0
0
0
0
0
0
0
0
0
0
0
0
0
0
0
0
0
0
0
0
0
0
0
0
0
0
0
0
0
0
0
0
0
0
0
0
0
0
0
0
0
0
0
0
0
0
0
0
0
0
0
0
0
0
0
0
0
0
0
0
0
0
0
0
0
0
0
0
0
0
0
0
0
0
0
0
0
0
0
0
0
0
0
0
0
0
0
0
0
0
0
0
0
0
0
0
0
0
0
0
0
0
0
0
0
0
0
0
0
0
0
0
0
0
0
0
0
0
0
0
0
0
0
0
0
0
0
0
0
0
0
0
0
0
0
0
0
0
0
0
0
0
0
0
0
0
0
0
0
0
0
0
0
0
0
0
0
0
0
0
0
0
0
0
0
0
0
0
0
0
0
0
0
0
0
0
0
0
0
0
0
0
0
0
0
0
0
0
0
0
0
0
0
0
0
0
0
0
0
0
0
0
0
0
0
0
0
0
0
0
0
0
0
0
0
0
0
0
0
0
0
0
0
0
0
0
0
0
0
0
0
0
0
0
0
0
0
0
0
0
0
0
0
0
0
0
0
0
0
0
0
0
0
0
0
0
0.0776396
0.0529008
0.0436468
0.0357376
0.0304737
0.027101
0.0247924
0.0231043
0.0217865
0.0207104
0.0198025
0.0190184
0.0183289
0.0177139
0.0171579
0.016647
0.0161668
0.015701
0.0152291
0.0147256
0.0141601
0.0135002
0.0127175
0.0117962
0.0107454
0.0096136
0.00850113
0.00756559
0.00701497
0.00708715
0.00801709
0.00999797
0.0131509
0.0175075
0.0230088
0.029526
0.0368817
0.0448669
0.0532727
0.0618929
0.0705365
0.0790561
0.0872888
0.0950679
0.102245
0.108696
0.114304
0.118917
0.122335
0.124356
0.12484
0.12373
0.12106
0.116933
0.111517
0.105029
0.0977362
0.0899286
0.0818959
0.0738974
0.066143
0.0587875
0.0519328
0.0456364
0.0399212
0.0347839
0.0302039
0.0261483
0.0225781
0.0194506
0.0167224
0.0143511
0.0122963
0.0105207
0.00899009
0.00767339
0.00654249
0.0055725
0.00474177
0.0040315
0.00342503
0.00290731
0.00246497
0.00208676
0.00176383
0.00148923
0.00125679
0.00106018
0.000892868
0.000749277
0.000626234
0.000523508
0.000442619
0.000384241
0.000345539
0.000319092
0.000294326
0.000261053
0.000213529
0.000153061
8.78285e-05
2.98867e-05
-9.3821e-06
-2.34738e-05
-1.2992e-05
1.4794e-05
4.86484e-05
7.71206e-05
9.19283e-05
8.98917e-05
7.30146e-05
4.70049e-05
1.89899e-05
-4.71059e-06
-2.00968e-05
-2.60096e-05
-2.37523e-05
-1.61523e-05
-6.47262e-06
2.48956e-06
8.92893e-06
1.2157e-05
1.24154e-05
1.05246e-05
7.50791e-06
4.29432e-06
1.54448e-06
-4.00492e-07
-1.47933e-06
-1.82255e-06
-1.65463e-06
-1.21253e-06
-6.92851e-07
-2.28188e-07
1.13604e-07
3.16431e-07
3.97657e-07
3.90626e-07
3.31362e-07
2.50444e-07
1.69504e-07
1.01027e-07
5.00283e-08
1.64332e-08
-2.65011e-09
-1.11553e-08
-1.29029e-08
-1.09997e-08
-7.64797e-09
-4.20504e-09
-1.36409e-09
6.36556e-10
1.82743e-09
2.36734e-09
2.45097e-09
2.25695e-09
1.92515e-09
1.55227e-09
1.19714e-09
8.89789e-10
6.40707e-10
4.48652e-10
3.06396e-10
2.04529e-10
1.33692e-10
8.5699e-11
5.39388e-11
3.33684e-11
2.0308e-11
1.21685e-11
7.18357e-12
4.18064e-12
2.39983e-12
1.35945e-12
7.60299e-13
4.1997e-13
2.29205e-13
1.23638e-13
6.59375e-14
3.47772e-14
1.8145e-14
9.3675e-15
4.78631e-15
2.42094e-15
1.21245e-15
6.01342e-16
2.95422e-16
1.43781e-16
6.93377e-17
3.31373e-17
1.56967e-17
7.37071e-18
3.43144e-18
1.58404e-18
7.25166e-19
3.2926e-19
1.48294e-19
6.6258e-20
2.93718e-20
1.29195e-20
5.63931e-21
2.44295e-21
1.05039e-21
4.48308e-22
1.89944e-22
7.98985e-23
3.33694e-23
1.38385e-23
5.69897e-24
2.33078e-24
9.46748e-25
3.81969e-25
1.53078e-25
6.09416e-26
2.41026e-26
9.4708e-27
3.69753e-27
1.43438e-27
5.52927e-28
2.11811e-28
8.06367e-29
3.05099e-29
1.14736e-29
4.28871e-30
1.59348e-30
5.88549e-31
2.161e-31
7.88826e-32
2.86276e-32
1.03296e-32
3.70596e-33
1.32206e-33
4.68979e-34
1.65435e-34
5.80351e-35
2.0247e-35
7.02512e-36
2.42431e-36
8.32105e-37
2.84081e-37
9.64707e-38
3.25876e-38
1.09504e-38
3.66053e-39
1.21732e-39
4.02748e-40
1.32568e-40
4.34147e-41
1.41462e-41
4.58634e-42
1.47953e-42
4.74929e-43
1.51702e-43
4.82201e-44
1.52528e-44
4.80138e-45
1.50415e-45
4.68964e-46
1.45519e-46
4.4941e-47
1.38141e-47
4.22639e-48
1.28704e-48
3.90127e-49
1.17711e-49
3.53542e-50
1.05702e-50
3.146e-51
9.32122e-52
2.7494e-52
8.07356e-53
2.36027e-53
6.86972e-54
1.9907e-54
5.74343e-55
1.64985e-55
4.71884e-56
1.34386e-56
3.8107e-57
1.07597e-57
3.02516e-58
8.46952e-59
2.36123e-59
6.55533e-60
1.81233e-60
4.98969e-61
1.36808e-61
3.73562e-62
1.01585e-62
2.7512e-63
7.42077e-64
1.9935e-64
5.33374e-65
1.42136e-65
3.77258e-66
9.9734e-67
2.62619e-67
6.888e-68
1.7995e-68
4.68285e-69
1.21387e-69
3.13436e-70
8.06201e-71
2.06568e-71
5.27248e-72
1.34062e-72
3.3958e-73
8.56899e-74
2.15414e-74
5.39491e-75
1.34606e-75
3.34595e-76
8.28626e-77
2.04449e-77
5.02582e-78
1.23092e-78
3.0037e-79
7.30291e-80
1.7691e-80
4.27006e-81
1.02694e-81
2.46087e-82
5.87588e-83
1.39799e-83
3.31424e-84
7.82926e-85
1.84298e-85
4.323e-86
1.01047e-86
2.35363e-87
5.46307e-88
1.26364e-88
2.91274e-89
6.69079e-90
1.53164e-90
3.49416e-91
7.94404e-92
1.79994e-92
4.0644e-93
9.14664e-94
2.05144e-94
4.58556e-95
1.02157e-95
2.26823e-96
5.01947e-97
1.10709e-97
2.43371e-98
5.33233e-99
1.16448e-99
2.53468e-100
5.49908e-101
1.18915e-101
2.56314e-102
5.50675e-103
1.17927e-103
2.51727e-104
5.3561e-105
1.13599e-105
2.40166e-106
5.06131e-107
1.06325e-107
2.22653e-108
4.64782e-109
9.67168e-110
2.00627e-110
4.14873e-111
8.55234e-112
1.75752e-112
3.60054e-113
7.3534e-114
1.49716e-114
3.03885e-115
6.14916e-116
1.24049e-116
2.49483e-117
5.00227e-118
9.99939e-119
1.9928e-119
3.95952e-120
7.84352e-121
1.54908e-121
3.05026e-122
5.98826e-123
1.17211e-123
2.28743e-124
4.45079e-125
8.6346e-126
1.67019e-126
3.22116e-127
6.19418e-128
1.18764e-128
2.27047e-129
4.32797e-130
8.22605e-131
1.55898e-131
2.94601e-132
5.55106e-133
1.04296e-133
1.95397e-134
3.65026e-135
6.79971e-136
1.26305e-136
2.33948e-137
4.32104e-138
7.95846e-139
1.46166e-139
2.67697e-140
4.88903e-141
8.90404e-142
1.61711e-142
2.92875e-143
5.28957e-144
9.52696e-145
1.71115e-145
3.06496e-146
5.47479e-147
9.75254e-148
1.73253e-148
3.06941e-149
5.4231e-150
9.55563e-151
1.67916e-151
2.94274e-152
5.14326e-153
8.96512e-154
1.5585e-154
2.70204e-155
4.67215e-156
8.05716e-157
1.38577e-157
2.3771e-158
4.06678e-159
6.93916e-160
1.18091e-160
2.0044e-161
3.3932e-162
5.72924e-163
9.64825e-164
1.62057e-164
2.71491e-165
4.53643e-166
7.56045e-167
1.25678e-167
2.08376e-168
3.44602e-169
5.68424e-170
9.35219e-171
1.53477e-171
2.51225e-172
4.10183e-173
6.68016e-174
1.08516e-174
1.75834e-175
2.84193e-176
4.58172e-177
7.36804e-178
1.18191e-178
1.89116e-179
3.01847e-180
4.80576e-181
7.6323e-182
1.20912e-182
1.91076e-183
3.01209e-184
4.7365e-185
7.42979e-186
1.16259e-186
1.81473e-187
2.82573e-188
4.38924e-189
6.80123e-190
1.0513e-190
1.62111e-191
2.4937e-192
3.8267e-193
5.85808e-194
8.9462e-195
1.36294e-195
2.07143e-196
3.14068e-197
4.75049e-198
7.16828e-199
1.07909e-199
1.62056e-200
2.42796e-201
3.62901e-202
5.41139e-203
8.05014e-204
1.19474e-204
1.76898e-205
2.61309e-206
3.85093e-207
5.66189e-208
8.30508e-209
1.21538e-209
1.77449e-210
2.58479e-211
3.75638e-212
5.4464e-213
7.87856e-214
1.13706e-214
1.63727e-215
2.35212e-216
3.37135e-217
4.82119e-218
6.87879e-219
9.79219e-220
1.39078e-220
1.97084e-221
2.7865e-222
3.93083e-223
5.53257e-224
7.76944e-225
1.08862e-225
1.52189e-226
2.12284e-227
2.95446e-228
4.10268e-229
5.68444e-230
7.8585e-231
1.08399e-231
1.49192e-232
2.04882e-233
2.80738e-234
3.8383e-235
5.23621e-236
7.12755e-237
9.68072e-238
1.31196e-238
1.77413e-239
2.39385e-240
3.22301e-241
4.32991e-242
5.80431e-243
7.76388e-244
1.03625e-244
1.3801e-245
1.83407e-246
2.43212e-247
3.21823e-248
4.24927e-249
5.59859e-250
7.36058e-251
9.65639e-252
1.26412e-252
1.65134e-253
2.15258e-254
2.79999e-255
3.63438e-256
4.70744e-257
6.08441e-258
7.84755e-259
1.01003e-259
1.29723e-260
1.66259e-261
2.12639e-262
2.71386e-263
3.45639e-264
4.39289e-265
5.57148e-266
7.05157e-267
8.90628e-268
1.12255e-268
1.41192e-269
1.77222e-270
2.21985e-271
2.77482e-272
3.46137e-273
4.30891e-274
5.35296e-275
6.63633e-276
8.21054e-277
1.01374e-277
1.24909e-278
1.53593e-279
1.8848e-280
2.30821e-281
2.821e-282
3.44071e-283
4.18806e-284
5.08744e-285
6.16748e-286
7.46174e-287
9.00943e-288
1.08563e-288
1.30554e-289
1.56686e-290
1.87671e-291
2.24336e-292
2.67627e-293
3.18637e-294
3.78614e-295
4.48986e-296
5.31381e-297
6.2765e-298
7.39893e-299
8.70485e-300
1.0221e-300
1.19777e-301
1.40086e-302
1.63516e-303
1.90491e-304
2.21481e-305
2.57008e-306
2.97651e-307
3.44048e-308
3.96901e-309
4.56984e-310
5.25138e-311
6.02284e-312
6.89425e-313
7.87645e-314
8.98117e-315
1.02211e-315
1.16097e-316
1.31616e-317
1.48922e-318
1.68185e-319
1.89573e-320
2.12942e-321
2.37152e-322
2.47033e-323
0
0
0
0
0
0
0
0
0
0
0
0
0
0
0
0
0
0
0
0
0
0
0
0
0
0
0
0
0
0
0
0
0
0
0
0
0
0
0
0
0
0
0
0
0
0
0
0
0
0
0
0
0
0
0
0
0
0
0
0
0
0
0
0
0
0
0
0
0
0
0
0
0
0
0
0
0
0
0
0
0
0
0
0
0
0
0
0
0
0
0
0
0
0
0
0
0
0
0
0
0
0
0
0
0
0
0
0
0
0
0
0
0
0
0
0
0
0
0
0
0
0
0
0
0
0
0
0
0
0
0
0
0
0
0
0
0
0
0
0
0
0
0
0
0
0
0
0
0
0
0
0
0
0
0
0
0
0
0
0
0
0
0
0
0
0
0
0
0
0
0
0
0
0
0
0
0
0
0
0
0
0
0
0
0
0
0
0
0
0
0
0
0
0
0
0
0
0
0
0
0
0
0
0
0
0
0
0
0
0
0
0
0
0
0
0
0
0
0
0
0
0
0
0
0
0
0
0
0
0
0
0
0
0
0
0
0
0
0
0
0
0
0
0
0
0
0
0
0
0
0
0
0
0
0
0
0
0
0
0
0
0
0
0
0
0
0
0
0
0
0
0
0
0
0
0
0
0
0
0
0
0
0
0
0
0
0
0
0
0
0
0
0
0
0
0
0
0
0
0
0
0
0
0
0
0
0
0
0
0
0
0
0
0
0
0
0
0
0
0
0
0
0
0
0
0
0
0
0
0
0
0
0
0
0
0
0
0
0
0
0
0
0
0
0
0
0
0
0
0
0
0
0
0
0
0
0
0
0
0
0
0
0
0
0
0
0
0
0
0
0
0
0
0
0
0
0
0
0
0
0
0
0
0
0
0
0
0
0
0
0
0
0
0
0
0
0
0
0
0
0
0
0
0
0
0
0
0
0
0
0
0
0
0
0
0
0
0
0
0
0
0
0
0
0
0
0
0
0
0
0
0
0
0
0
0
0
0
0
0
0
0
0
0
0
0
0
0
0
0
0
0
0
0
0
0
0
0
0
0
0
0
0
0
0
0
0
0
0
0
0
0
0
0
0
0
0
0
0
0
0
0
0
0
0
0
0
0
0
0
0
0
0
0
0
0
0
0
0
0
0
0
0
0
0
0
0
0
0
0
0
0
0
0
0
0
0
0
0
0
0
0
0
0
0
0
0
0
0
0
0
0
0
0
0
0
0
0
0
0
0
0
0
0
0
0
0
0
0
0
0
0
0
0
0
0
0
0
0
0
0
0
0
0
0
0
0
0
0
0
0
0
0
0
0
0
0
0
0
0
0
0
0
0
0
0
0
0
0
0
0
0
0
0
0
0
0
0
0
0
0
0
0
0
0
0
0
0
0
0
0
0
0
0
0
0
0
0
0
0
0
0
0
0
0
0
0
0
0
0
0
0
0
0
0
0
0
0
0
0
0
0
0
0
0
0
0
0
0
0
0
0
0
0
0
0
0
0
0
0
0
0
0
0
0
0
0
0
0
0
0
0
0
0
0
0
0
0
0
0
0
0
0
0
0
0
0
0
0
0
0
0
0
0
0
0
0
0
0
0
0
0
0
0
0
0
0
0
0
0
0
0
0
0
0
0
0
0
0
0
0
0
0
0
0
0
0
0
0
0
0
0
0
0
0
0
0
0
0
0
0
0
0
0
0
0
0
0
0
0
0
0
0
0
0
0
0
0
0
0
0
0
0
0
0
0
0
0
0
0
0
0
0
0
0
0
0
0
0
0
0
0
0
0
0
0
0
0
0
0
0
0
0
0
0
0
0
0
0
0
0
0
0
0
0
0
0
0
0
0
0
0
0
0
0
0
0
0
0
0
0
0
0
0
0
0
0
0
0
0
0
0
0
0
0
0
0
0
0
0
0
0
0
0
0
0
0
0
0
0
0
0
0
0
0
0
0
0
0
0
0
0
0
0
0
0
0
0
0
0
0
0
0
0
0
0
0
0
0
0
0
0
0
0
0
0
0
0
0
0
0
0
0
0
0
0
0
0
0
0
0
0
0
0
0
0
0
0
0
0
0
0
0
0
0
0
0
0
0
0
0
0
0
0
0
0
0
0
0
0
0
0
0
0
0
0
0
0
0
0
0
0
0
0
0
0
0
0
0
0
0
0
0
0
0
0
0
0
0
0
0
0
0
0
0
0
0
0
0
0
0
0
0
0
0
0
0
0
0
0
0.0627847
0.0345524
0.0299547
0.0252736
0.0221348
0.0200016
0.0184431
0.0172561
0.0163061
0.0155198
0.0148516
0.0142722
0.0137616
0.0133055
0.0128931
0.0125144
0.0121586
0.0118135
0.011464
0.0110911
0.0106715
0.0101799
0.00959341
0.00889774
0.0080958
0.00721888
0.0063372
0.00556579
0.00506128
0.00500765
0.0055916
0.00697048
0.00924463
0.0124401
0.0165066
0.0213315
0.0267558
0.0325945
0.0386623
0.0447813
0.0507888
0.0565612
0.0619839
0.0669559
0.0714028
0.075271
0.0785177
0.0810852
0.0828968
0.0838777
0.0839802
0.0831955
0.0815514
0.0791044
0.0759322
0.07213
0.0678093
0.063098
0.0581361
0.0530662
0.0480222
0.0431187
0.0384456
0.0340665
0.0300211
0.0263288
0.0229932
0.0200057
0.0173496
0.0150032
0.0129415
0.0111383
0.00956732
0.00820352
0.00702328
0.00600463
0.00512729
0.00437288
0.00372526
0.00317046
0.00269615
0.00229103
0.00194473
0.0016482
0.00139428
0.00117767
0.000994076
0.000839076
0.000707581
0.000594488
0.000496174
0.000411735
0.000342833
0.000291832
0.000259058
0.000240716
0.000228833
0.000213548
0.000186831
0.000145877
9.45116e-05
4.18952e-05
-9.45493e-07
-2.52421e-05
-2.75913e-05
-1.09226e-05
1.68275e-05
4.56039e-05
6.64806e-05
7.41158e-05
6.77264e-05
5.05159e-05
2.80246e-05
6.13302e-06
-1.06012e-05
-1.98513e-05
-2.15965e-05
-1.75541e-05
-1.03025e-05
-2.41978e-06
4.13226e-06
8.2878e-06
9.85036e-06
9.26239e-06
7.29582e-06
4.76717e-06
2.33954e-06
4.29295e-07
-7.97313e-07
-1.36958e-06
-1.43427e-06
-1.18105e-06
-7.87126e-07
-3.86203e-07
-5.89756e-08
1.61411e-07
2.7627e-07
3.06649e-07
2.80818e-07
2.25653e-07
1.62054e-07
1.03554e-07
5.70054e-08
2.42597e-08
4.05617e-09
-6.355e-09
-1.00538e-08
-9.76591e-09
-7.56239e-09
-4.81855e-09
-2.31657e-09
-4.031e-10
8.53699e-10
1.5361e-09
1.78651e-09
1.75228e-09
1.5577e-09
1.2943e-09
1.0218e-09
7.74082e-10
5.66419e-10
4.0218e-10
2.78042e-10
1.87646e-10
1.2388e-10
8.01343e-11
5.08611e-11
3.17106e-11
1.94403e-11
1.17286e-11
6.96881e-12
4.08059e-12
2.35609e-12
1.34212e-12
7.54607e-13
4.18956e-13
2.29775e-13
1.24531e-13
6.67166e-14
3.53431e-14
1.85187e-14
9.59989e-15
4.92467e-15
2.5006e-15
1.25707e-15
6.25764e-16
3.08519e-16
1.50679e-16
7.29113e-17
3.49609e-17
1.66142e-17
7.82627e-18
3.65482e-18
1.69228e-18
7.77019e-19
3.53831e-19
1.59815e-19
7.16055e-20
3.18295e-20
1.40383e-20
6.14388e-21
2.66845e-21
1.15028e-21
4.92174e-22
2.09045e-22
8.81467e-23
3.69022e-23
1.53396e-23
6.3318e-24
2.5955e-24
1.05665e-24
4.27254e-25
1.716e-25
6.84626e-26
2.71346e-26
1.06845e-26
4.18e-27
1.62485e-27
6.2761e-28
2.40898e-28
9.18898e-29
3.4835e-29
1.31251e-29
4.91531e-30
1.82971e-30
6.77044e-31
2.49046e-31
9.10727e-32
3.31104e-32
1.19682e-32
4.3013e-33
1.53708e-33
5.46185e-34
1.92995e-34
6.7816e-35
2.36984e-35
8.23608e-36
2.84679e-36
9.78681e-37
3.34651e-37
1.13822e-37
3.85087e-38
1.296e-38
4.33888e-39
1.44509e-39
4.78819e-40
1.57841e-40
5.17672e-41
1.68924e-41
5.48454e-42
1.77181e-42
5.69557e-43
1.82184e-43
5.79895e-44
1.83683e-44
5.79001e-45
1.81633e-45
5.67055e-46
1.76191e-46
5.44856e-47
1.67699e-47
5.13738e-48
1.56648e-48
4.75439e-49
1.43635e-49
4.31945e-50
1.29305e-50
3.85325e-51
1.14308e-51
3.37577e-52
9.92489e-53
2.90499e-53
8.46527e-54
2.45597e-54
7.09413e-55
2.04024e-55
5.84219e-56
1.66568e-56
4.7287e-57
1.33669e-57
3.76244e-58
1.05455e-58
2.94326e-59
8.18021e-60
2.26404e-60
6.24014e-61
1.71279e-61
4.68188e-62
1.27454e-62
3.45546e-63
9.33018e-64
2.50907e-64
6.72018e-65
1.79267e-65
4.76302e-66
1.26047e-66
3.32243e-67
8.7229e-68
2.28116e-68
5.94218e-69
1.54184e-69
3.98513e-70
1.02603e-70
2.6315e-71
6.7232e-72
1.71113e-72
4.33845e-73
1.09581e-73
2.75734e-74
6.91205e-75
1.7262e-75
4.29488e-76
1.06461e-76
2.62915e-77
6.46894e-78
1.5858e-78
3.87318e-79
9.42535e-80
2.28529e-80
5.52088e-81
1.32893e-81
3.18733e-82
7.6171e-83
1.81383e-83
4.3038e-84
1.01757e-84
2.39735e-85
5.62816e-86
1.31665e-86
3.06939e-87
7.13039e-88
1.65067e-88
3.80801e-89
8.7545e-90
2.0057e-90
4.57937e-91
1.04197e-91
2.36278e-92
5.33962e-93
1.2026e-93
2.69938e-94
6.03867e-95
1.34635e-95
2.9917e-96
6.62562e-97
1.46247e-97
3.21742e-98
7.05488e-99
1.54184e-99
3.35859e-100
7.2921e-101
1.57807e-101
3.40397e-102
7.31869e-103
1.56846e-103
3.35051e-104
7.13426e-105
1.51423e-105
3.20365e-106
6.75635e-107
1.42035e-107
2.97647e-108
6.21775e-109
1.29478e-109
2.68775e-110
5.56189e-111
1.14735e-111
2.35948e-112
4.83709e-113
9.88566e-114
2.01411e-114
4.09094e-115
8.28374e-116
1.67224e-116
3.36544e-117
6.75243e-118
1.3507e-118
2.69363e-119
5.35557e-120
1.0616e-120
2.09803e-121
4.1339e-122
8.12096e-123
1.59059e-123
3.10612e-124
6.04767e-125
1.17401e-125
2.27234e-126
4.38528e-127
8.43809e-128
1.6189e-128
3.09689e-129
5.90698e-130
1.12342e-130
2.1304e-131
4.02832e-132
7.59511e-133
1.42789e-133
2.67675e-134
5.00355e-135
9.32629e-136
1.73341e-136
3.21264e-137
5.93731e-138
1.09418e-138
2.01079e-139
3.68485e-140
6.73372e-141
1.22709e-141
2.22988e-142
4.0409e-143
7.30243e-144
1.31599e-144
2.36503e-145
4.2386e-146
7.57553e-147
1.35024e-147
2.40004e-148
4.25441e-149
7.52101e-150
1.32596e-150
2.33135e-151
4.08798e-152
7.14884e-153
1.24679e-153
2.16861e-154
3.76189e-155
6.5083e-156
1.12297e-156
1.93247e-157
3.31668e-158
5.67729e-159
9.69237e-160
1.65033e-160
2.80265e-161
4.74707e-162
8.01941e-163
1.35121e-163
2.27075e-164
3.80613e-165
6.3631e-166
1.06103e-166
1.76466e-167
2.92735e-168
4.8436e-169
7.99365e-170
1.31585e-170
2.16051e-171
3.53832e-172
5.78003e-173
9.41797e-174
1.53067e-174
2.48146e-175
4.01267e-176
6.47239e-177
1.04136e-177
1.67128e-178
2.6755e-179
4.27244e-180
6.80553e-181
1.08135e-181
1.71392e-182
2.70979e-183
4.27372e-184
6.72362e-185
1.05519e-185
1.65191e-186
2.57974e-187
4.01885e-188
6.24545e-189
9.68202e-190
1.4973e-190
2.30992e-191
3.55492e-192
5.45771e-193
8.35876e-194
1.2771e-194
1.94653e-195
2.95974e-196
4.48957e-197
6.79385e-198
1.02563e-198
1.54464e-199
2.32076e-200
3.47857e-201
5.20166e-202
7.75989e-203
1.1549e-203
1.71477e-204
2.54008e-205
3.75377e-206
5.53439e-207
8.14058e-208
1.19461e-208
1.74898e-209
2.55466e-210
3.72281e-211
5.41256e-212
7.85106e-213
1.13619e-213
1.64049e-214
2.36316e-215
3.39639e-216
4.87017e-217
6.9675e-218
9.94528e-219
1.41634e-219
2.01246e-220
2.85299e-221
4.03541e-222
5.69496e-223
8.01886e-224
1.12656e-224
1.57912e-225
2.20852e-226
3.08186e-227
4.29091e-228
5.96094e-229
8.26247e-230
1.14271e-230
1.57687e-231
2.17116e-232
2.98279e-233
4.08876e-234
5.59243e-235
7.63222e-236
1.03931e-236
1.41216e-237
1.91455e-238
2.59e-239
3.49608e-240
4.70884e-241
6.32847e-242
8.48669e-243
1.13562e-243
1.5163e-244
2.02021e-245
2.68577e-246
3.56289e-247
4.71628e-248
6.22962e-249
8.21089e-250
1.07991e-250
1.41727e-251
1.85605e-252
2.42548e-253
3.16287e-254
4.11567e-255
5.34411e-256
6.92452e-257
8.9533e-258
1.1552e-258
1.48736e-259
1.91099e-260
2.4501e-261
3.13472e-262
4.00222e-263
5.0991e-264
6.48302e-265
8.22533e-266
1.04141e-266
1.3158e-267
1.65902e-268
2.08743e-269
2.62103e-270
3.28423e-271
4.10673e-272
5.12463e-273
6.38167e-274
7.93072e-275
9.83553e-276
1.21729e-276
1.50348e-277
1.85316e-278
2.27952e-279
2.79825e-280
3.42803e-281
4.19103e-282
5.11345e-283
6.22626e-284
7.5659e-285
9.17522e-286
1.11044e-286
1.34122e-287
1.61669e-288
1.94484e-289
2.3349e-290
2.79757e-291
3.34523e-292
3.9921e-293
4.75457e-294
5.65138e-295
6.704e-296
7.93688e-297
9.37786e-298
1.10585e-298
1.30146e-299
1.52864e-300
1.79194e-301