# vtk DataFile Version 2.0
FlowField
ASCII
DATASET STRUCTURED_GRID
DIMENSIONS 1602 1 52
POINTS 83304 float
0 0 0
0.1 0 0
0.2 0 0
0.3 0 0
0.4 0 0
0.5 0 0
0.6 0 0
0.7 0 0
0.8 0 0
0.9 0 0
1 0 0
1.1 0 0
1.2 0 0
1.3 0 0
1.4 0 0
1.5 0 0
1.6 0 0
1.7 0 0
1.8 0 0
1.9 0 0
2 0 0
2.1 0 0
2.2 0 0
2.3 0 0
2.4 0 0
2.5 0 0
2.6 0 0
2.7 0 0
2.8 0 0
2.9 0 0
3 0 0
3.1 0 0
3.2 0 0
3.3 0 0
3.4 0 0
3.5 0 0
3.6 0 0
3.7 0 0
3.8 0 0
3.9 0 0
4 0 0
4.1 0 0
4.2 0 0
4.3 0 0
4.4 0 0
4.5 0 0
4.6 0 0
4.7 0 0
4.8 0 0
4.9 0 0
5 0 0
5.1 0 0
5.2 0 0
5.3 0 0
5.4 0 0
5.5 0 0
5.6 0 0
5.7 0 0
5.8 0 0
5.9 0 0
6 0 0
6.1 0 0
6.2 0 0
6.3 0 0
6.4 0 0
6.5 0 0
6.6 0 0
6.7 0 0
6.8 0 0
6.9 0 0
7 0 0
7.1 0 0
7.2 0 0
7.3 0 0
7.4 0 0
7.5 0 0
7.6 0 0
7.7 0 0
7.8 0 0
7.9 0 0
8 0 0
8.1 0 0
8.2 0 0
8.3 0 0
8.4 0 0
8.5 0 0
8.6 0 0
8.7 0 0
8.8 0 0
8.9 0 0
9 0 0
9.1 0 0
9.2 0 0
9.3 0 0
9.4 0 0
9.5 0 0
9.6 0 0
9.7 0 0
9.8 0 0
9.9 0 0
10 0 0
10.1 0 0
10.2 0 0
10.3 0 0
10.4 0 0
10.5 0 0
10.6 0 0
10.7 0 0
10.8 0 0
10.9 0 0
11 0 0
11.1 0 0
11.2 0 0
11.3 0 0
11.4 0 0
11.5 0 0
11.6 0 0
11.7 0 0
11.8 0 0
11.9 0 0
12 0 0
12.1 0 0
12.2 0 0
12.3 0 0
12.4 0 0
12.5 0 0
12.6 0 0
12.7 0 0
12.8 0 0
12.9 0 0
13 0 0
13.1 0 0
13.2 0 0
13.3 0 0
13.4 0 0
13.5 0 0
13.6 0 0
13.7 0 0
13.8 0 0
13.9 0 0
14 0 0
14.1 0 0
14.2 0 0
14.3 0 0
14.4 0 0
14.5 0 0
14.6 0 0
14.7 0 0
14.8 0 0
14.9 0 0
15 0 0
15.1 0 0
15.2 0 0
15.3 0 0
15.4 0 0
15.5 0 0
15.6 0 0
15.7 0 0
15.8 0 0
15.9 0 0
16 0 0
16.1 0 0
16.2 0 0
16.3 0 0
16.4 0 0
16.5 0 0
16.6 0 0
16.7 0 0
16.8 0 0
16.9 0 0
17 0 0
17.1 0 0
17.2 0 0
17.3 0 0
17.4 0 0
17.5 0 0
17.6 0 0
17.7 0 0
17.8 0 0
17.9 0 0
18 0 0
18.1 0 0
18.2 0 0
18.3 0 0
18.4 0 0
18.5 0 0
18.6 0 0
18.7 0 0
18.8 0 0
18.9 0 0
19 0 0
19.1 0 0
19.2 0 0
19.3 0 0
19.4 0 0
19.5 0 0
19.6 0 0
19.7 0 0
19.8 0 0
19.9 0 0
20 0 0
20.1 0 0
20.2 0 0
20.3 0 0
20.4 0 0
20.5 0 0
20.6 0 0
20.7 0 0
20.8 0 0
20.9 0 0
21 0 0
21.1 0 0
21.2 0 0
21.3 0 0
21.4 0 0
21.5 0 0
21.6 0 0
21.7 0 0
21.8 0 0
21.9 0 0
22 0 0
22.1 0 0
22.2 0 0
22.3 0 0
22.4 0 0
22.5 0 0
22.6 0 0
22.7 0 0
22.8 0 0
22.9 0 0
23 0 0
23.1 0 0
23.2 0 0
23.3 0 0
23.4 0 0
23.5 0 0
23.6 0 0
23.7 0 0
23.8 0 0
23.9 0 0
24 0 0
24.1 0 0
24.2 0 0
24.3 0 0
24.4 0 0
24.5 0 0
24.6 0 0
24.7 0 0
24.8 0 0
24.9 0 0
25 0 0
25.1 0 0
25.2 0 0
25.3 0 0
25.4 0 0
25.5 0 0
25.6 0 0
25.7 0 0
25.8 0 0
25.9 0 0
26 0 0
26.1 0 0
26.2 0 0
26.3 0 0
26.4 0 0
26.5 0 0
26.6 0 0
26.7 0 0
26.8 0 0
26.9 0 0
27 0 0
27.1 0 0
27.2 0 0
27.3 0 0
27.4 0 0
27.5 0 0
27.6 0 0
27.7 0 0
27.8 0 0
27.9 0 0
28 0 0
28.1 0 0
28.2 0 0
28.3 0 0
28.4 0 0
28.5 0 0
28.6 0 0
28.7 0 0
28.8 0 0
28.9 0 0
29 0 0
29.1 0 0
29.2 0 0
29.3 0 0
29.4 0 0
29.5 0 0
29.6 0 0
29.7 0 0
29.8 0 0
29.9 0 0
30 0 0
30.1 0 0
30.2 0 0
30.3 0 0
30.4 0 0
30.5 0 0
30.6 0 0
30.7 0 0
30.8 0 0
30.9 0 0
31 0 0
31.1 0 0
31.2 0 0
31.3 0 0
31.4 0 0
31.5 0 0
31.6 0 0
31.7 0 0
31.8 0 0
31.9 0 0
32 0 0
32.1 0 0
32.2 0 0
32.3 0 0
32.4 0 0
32.5 0 0
32.6 0 0
32.7 0 0
32.8 0 0
32.9 0 0
33 0 0
33.1 0 0
33.2 0 0
33.3 0 0
33.4 0 0
33.5 0 0
33.6 0 0
33.7 0 0
33.8 0 0
33.9 0 0
34 0 0
34.1 0 0
34.2 0 0
34.3 0 0
34.4 0 0
34.5 0 0
34.6 0 0
34.7 0 0
34.8 0 0
34.9 0 0
35 0 0
35.1 0 0
35.2 0 0
35.3 0 0
35.4 0 0
35.5 0 0
35.6 0 0
35.7 0 0
35.8 0 0
35.9 0 0
36 0 0
36.1 0 0
36.2 0 0
36.3 0 0
36.4 0 0
36.5 0 0
36.6 0 0
36.7 0 0
36.8 0 0
36.9 0 0
37 0 0
37.1 0 0
37.2 0 0
37.3 0 0
37.4 0 0
37.5 0 0
37.6 0 0
37.7 0 0
37.8 0 0
37.9 0 0
38 0 0
38.1 0 0
38.2 0 0
38.3 0 0
38.4 0 0
38.5 0 0
38.6 0 0
38.7 0 0
38.8 0 0
38.9 0 0
39 0 0
39.1 0 0
39.2 0 0
39.3 0 0
39.4 0 0
39.5 0 0
39.6 0 0
39.7 0 0
39.8 0 0
39.9 0 0
40 0 0
40.1 0 0
40.2 0 0
40.3 0 0
40.4 0 0
40.5 0 0
40.6 0 0
40.7 0 0
40.8 0 0
40.9 0 0
41 0 0
41.1 0 0
41.2 0 0
41.3 0 0
41.4 0 0
41.5 0 0
41.6 0 0
41.7 0 0
41.8 0 0
41.9 0 0
42 0 0
42.1 0 0
42.2 0 0
42.3 0 0
42.4 0 0
42.5 0 0
42.6 0 0
42.7 0 0
42.8 0 0
42.9 0 0
43 0 0
43.1 0 0
43.2 0 0
43.3 0 0
43.4 0 0
43.5 0 0
43.6 0 0
43.7 0 0
43.8 0 0
43.9 0 0
44 0 0
44.1 0 0
44.2 0 0
44.3 0 0
44.4 0 0
44.5 0 0
44.6 0 0
44.7 0 0
44.8 0 0
44.9 0 0
45 0 0
45.1 0 0
45.2 0 0
45.3 0 0
45.4 0 0
45.5 0 0
45.6 0 0
45.7 0 0
45.8 0 0
45.9 0 0
46 0 0
46.1 0 0
46.2 0 0
46.3 0 0
46.4 0 0
46.5 0 0
46.6 0 0
46.7 0 0
46.8 0 0
46.9 0 0
47 0 0
47.1 0 0
47.2 0 0
47.3 0 0
47.4 0 0
47.5 0 0
47.6 0 0
47.7 0 0
47.8 0 0
47.9 0 0
48 0 0
48.1 0 0
48.2 0 0
48.3 0 0
48.4 0 0
48.5 0 0
48.6 0 0
48.7 0 0
48.8 0 0
48.9 0 0
49 0 0
49.1 0 0
49.2 0 0
49.3 0 0
49.4 0 0
49.5 0 0
49.6 0 0
49.7 0 0
49.8 0 0
49.9 0 0
50 0 0
50.1 0 0
50.2 0 0
50.3 0 0
50.4 0 0
50.5 0 0
50.6 0 0
50.7 0 0
50.8 0 0
50.9 0 0
51 0 0
51.1 0 0
51.2 0 0
51.3 0 0
51.4 0 0
51.5 0 0
51.6 0 0
51.7 0 0
51.8 0 0
51.9 0 0
52 0 0
52.1 0 0
52.2 0 0
52.3 0 0
52.4 0 0
52.5 0 0
52.6 0 0
52.7 0 0
52.8 0 0
52.9 0 0
53 0 0
53.1 0 0
53.2 0 0
53.3 0 0
53.4 0 0
53.5 0 0
53.6 0 0
53.7 0 0
53.8 0 0
53.9 0 0
54 0 0
54.1 0 0
54.2 0 0
54.3 0 0
54.4 0 0
54.5 0 0
54.6 0 0
54.7 0 0
54.8 0 0
54.9 0 0
55 0 0
55.1 0 0
55.2 0 0
55.3 0 0
55.4 0 0
55.5 0 0
55.6 0 0
55.7 0 0
55.8 0 0
55.9 0 0
56 0 0
56.1 0 0
56.2 0 0
56.3 0 0
56.4 0 0
56.5 0 0
56.6 0 0
56.7 0 0
56.8 0 0
56.9 0 0
57 0 0
57.1 0 0
57.2 0 0
57.3 0 0
57.4 0 0
57.5 0 0
57.6 0 0
57.7 0 0
57.8 0 0
57.9 0 0
58 0 0
58.1 0 0
58.2 0 0
58.3 0 0
58.4 0 0
58.5 0 0
58.6 0 0
58.7 0 0
58.8 0 0
58.9 0 0
59 0 0
59.1 0 0
59.2 0 0
59.3 0 0
59.4 0 0
59.5 0 0
59.6 0 0
59.7 0 0
59.8 0 0
59.9 0 0
60 0 0
60.1 0 0
60.2 0 0
60.3 0 0
60.4 0 0
60.5 0 0
60.6 0 0
60.7 0 0
60.8 0 0
60.9 0 0
61 0 0
61.1 0 0
61.2 0 0
61.3 0 0
61.4 0 0
61.5 0 0
61.6 0 0
61.7 0 0
61.8 0 0
61.9 0 0
62 0 0
62.1 0 0
62.2 0 0
62.3 0 0
62.4 0 0
62.5 0 0
62.6 0 0
62.7 0 0
62.8 0 0
62.9 0 0
63 0 0
63.1 0 0
63.2 0 0
63.3 0 0
63.4 0 0
63.5 0 0
63.6 0 0
63.7 0 0
63.8 0 0
63.9 0 0
64 0 0
64.1 0 0
64.2 0 0
64.3 0 0
64.4 0 0
64.5 0 0
64.6 0 0
64.7 0 0
64.8 0 0
64.9 0 0
65 0 0
65.1 0 0
65.2 0 0
65.3 0 0
65.4 0 0
65.5 0 0
65.6 0 0
65.7 0 0
65.8 0 0
65.9 0 0
66 0 0
66.1 0 0
66.2 0 0
66.3 0 0
66.4 0 0
66.5 0 0
66.6 0 0
66.7 0 0
66.8 0 0
66.9 0 0
67 0 0
67.1 0 0
67.2 0 0
67.3 0 0
67.4 0 0
67.5 0 0
67.6 0 0
67.7 0 0
67.8 0 0
67.9 0 0
68 0 0
68.1 0 0
68.2 0 0
68.3 0 0
68.4 0 0
68.5 0 0
68.6 0 0
68.7 0 0
68.8 0 0
68.9 0 0
69 0 0
69.1 0 0
69.2 0 0
69.3 0 0
69.4 0 0
69.5 0 0
69.6 0 0
69.7 0 0
69.8 0 0
69.9 0 0
70 0 0
70.1 0 0
70.2 0 0
70.3 0 0
70.4 0 0
70.5 0 0
70.6 0 0
70.7 0 0
70.8 0 0
70.9 0 0
71 0 0
71.1 0 0
71.2 0 0
71.3 0 0
71.4 0 0
71.5 0 0
71.6 0 0
71.7 0 0
71.8 0 0
71.9 0 0
72 0 0
72.1 0 0
72.2 0 0
72.3 0 0
72.4 0 0
72.5 0 0
72.6 0 0
72.7 0 0
72.8 0 0
72.9 0 0
73 0 0
73.1 0 0
73.2 0 0
73.3 0 0
73.4 0 0
73.5 0 0
73.6 0 0
73.7 0 0
73.8 0 0
73.9 0 0
74 0 0
74.1 0 0
74.2 0 0
74.3 0 0
74.4 0 0
74.5 0 0
74.6 0 0
74.7 0 0
74.8 0 0
74.9 0 0
75 0 0
75.1 0 0
75.2 0 0
75.3 0 0
75.4 0 0
75.5 0 0
75.6 0 0
75.7 0 0
75.8 0 0
75.9 0 0
76 0 0
76.1 0 0
76.2 0 0
76.3 0 0
76.4 0 0
76.5 0 0
76.6 0 0
76.7 0 0
76.8 0 0
76.9 0 0
77 0 0
77.1 0 0
77.2 0 0
77.3 0 0
77.4 0 0
77.5 0 0
77.6 0 0
77.7 0 0
77.8 0 0
77.9 0 0
78 0 0
78.1 0 0
78.2 0 0
78.3 0 0
78.4 0 0
78.5 0 0
78.6 0 0
78.7 0 0
78.8 0 0
78.9 0 0
79 0 0
79.1 0 0
79.2 0 0
79.3 0 0
79.4 0 0
79.5 0 0
79.6 0 0
79.7 0 0
79.8 0 0
79.9 0 0
80 0 0
80.1 0 0
80.2 0 0
80.3 0 0
80.4 0 0
80.5 0 0
80.6 0 0
80.7 0 0
80.8 0 0
80.9 0 0
81 0 0
81.1 0 0
81.2 0 0
81.3 0 0
81.4 0 0
81.5 0 0
81.6 0 0
81.7 0 0
81.8 0 0
81.9 0 0
82 0 0
82.1 0 0
82.2 0 0
82.3 0 0
82.4 0 0
82.5 0 0
82.6 0 0
82.7 0 0
82.8 0 0
82.9 0 0
83 0 0
83.1 0 0
83.2 0 0
83.3 0 0
83.4 0 0
83.5 0 0
83.6 0 0
83.7 0 0
83.8 0 0
83.9 0 0
84 0 0
84.1 0 0
84.2 0 0
84.3 0 0
84.4 0 0
84.5 0 0
84.6 0 0
84.7 0 0
84.8 0 0
84.9 0 0
85 0 0
85.1 0 0
85.2 0 0
85.3 0 0
85.4 0 0
85.5 0 0
85.6 0 0
85.7 0 0
85.8 0 0
85.9 0 0
86 0 0
86.1 0 0
86.2 0 0
86.3 0 0
86.4 0 0
86.5 0 0
86.6 0 0
86.7 0 0
86.8 0 0
86.9 0 0
87 0 0
87.1 0 0
87.2 0 0
87.3 0 0
87.4 0 0
87.5 0 0
87.6 0 0
87.7 0 0
87.8 0 0
87.9 0 0
88 0 0
88.1 0 0
88.2 0 0
88.3 0 0
88.4 0 0
88.5 0 0
88.6 0 0
88.7 0 0
88.8 0 0
88.9 0 0
89 0 0
89.1 0 0
89.2 0 0
89.3 0 0
89.4 0 0
89.5 0 0
89.6 0 0
89.7 0 0
89.8 0 0
89.9 0 0
90 0 0
90.1 0 0
90.2 0 0
90.3 0 0
90.4 0 0
90.5 0 0
90.6 0 0
90.7 0 0
90.8 0 0
90.9 0 0
91 0 0
91.1 0 0
91.2 0 0
91.3 0 0
91.4 0 0
91.5 0 0
91.6 0 0
91.7 0 0
91.8 0 0
91.9 0 0
92 0 0
92.1 0 0
92.2 0 0
92.3 0 0
92.4 0 0
92.5 0 0
92.6 0 0
92.7 0 0
92.8 0 0
92.9 0 0
93 0 0
93.1 0 0
93.2 0 0
93.3 0 0
93.4 0 0
93.5 0 0
93.6 0 0
93.7 0 0
93.8 0 0
93.9 0 0
94 0 0
94.1 0 0
94.2 0 0
94.3 0 0
94.4 0 0
94.5 0 0
94.6 0 0
94.7 0 0
94.8 0 0
94.9 0 0
95 0 0
95.1 0 0
95.2 0 0
95.3 0 0
95.4 0 0
95.5 0 0
95.6 0 0
95.7 0 0
95.8 0 0
95.9 0 0
96 0 0
96.1 0 0
96.2 0 0
96.3 0 0
96.4 0 0
96.5 0 0
96.6 0 0
96.7 0 0
96.8 0 0
96.9 0 0
97 0 0
97.1 0 0
97.2 0 0
97.3 0 0
97.4 0 0
97.5 0 0
97.6 0 0
97.7 0 0
97.8 0 0
97.9 0 0
98 0 0
98.1 0 0
98.2 0 0
98.3 0 0
98.4 0 0
98.5 0 0
98.6 0 0
98.7 0 0
98.8 0 0
98.9 0 0
99 0 0
99.1 0 0
99.2 0 0
99.3 0 0
99.4 0 0
99.5 0 0
99.6 0 0
99.7 0 0
99.8 0 0
99.9 0 0
100 0 0
100.1 0 0
100.2 0 0
100.3 0 0
100.4 0 0
100.5 0 0
100.6 0 0
100.7 0 0
100.8 0 0
100.9 0 0
101 0 0
101.1 0 0
101.2 0 0
101.3 0 0
101.4 0 0
101.5 0 0
101.6 0 0
101.7 0 0
101.8 0 0
101.9 0 0
102 0 0
102.1 0 0
102.2 0 0
102.3 0 0
102.4 0 0
102.5 0 0
102.6 0 0
102.7 0 0
102.8 0 0
102.9 0 0
103 0 0
103.1 0 0
103.2 0 0
103.3 0 0
103.4 0 0
103.5 0 0
103.6 0 0
103.7 0 0
103.8 0 0
103.9 0 0
104 0 0
104.1 0 0
104.2 0 0
104.3 0 0
104.4 0 0
104.5 0 0
104.6 0 0
104.7 0 0
104.8 0 0
104.9 0 0
105 0 0
105.1 0 0
105.2 0 0
105.3 0 0
105.4 0 0
105.5 0 0
105.6 0 0
105.7 0 0
105.8 0 0
105.9 0 0
106 0 0
106.1 0 0
106.2 0 0
106.3 0 0
106.4 0 0
106.5 0 0
106.6 0 0
106.7 0 0
106.8 0 0
106.9 0 0
107 0 0
107.1 0 0
107.2 0 0
107.3 0 0
107.4 0 0
107.5 0 0
107.6 0 0
107.7 0 0
107.8 0 0
107.9 0 0
108 0 0
108.1 0 0
108.2 0 0
108.3 0 0
108.4 0 0
108.5 0 0
108.6 0 0
108.7 0 0
108.8 0 0
108.9 0 0
109 0 0
109.1 0 0
109.2 0 0
109.3 0 0
109.4 0 0
109.5 0 0
109.6 0 0
109.7 0 0
109.8 0 0
109.9 0 0
110 0 0
110.1 0 0
110.2 0 0
110.3 0 0
110.4 0 0
110.5 0 0
110.6 0 0
110.7 0 0
110.8 0 0
110.9 0 0
111 0 0
111.1 0 0
111.2 0 0
111.3 0 0
111.4 0 0
111.5 0 0
111.6 0 0
111.7 0 0
111.8 0 0
111.9 0 0
112 0 0
[...]
POINT_DATA 83304

SCALARS pressure float 1
LOOKUP_TABLE default
0
0
0
0
0
0
0
0
0
0
0
0
0
0
0
0
0
0
0
0
0
0
0
0
0
0
0
0
0
0
0
0
0
0
0
0
0
0
0
0
0
0
0
0
0
0
0
0
0
0
0
0
0
0
0
0
0
0
0
0
0
0
0
0
0
0
0
0
0
0
0
0
0
0
0
0
0
0
0
0
0
0
0
0
0
0
0
0
0
0
0
0
0
0
0
0
0
0
0
0
0
0
0
0
0
0
0
0
0
0
0
0
0
0
0
0
0
0
0
0
0
0
0
0
0
0
0
0
0
0
0
0
0
0
0
0
0
0
0
0
0
0
0
0
0
0
0
0
0
0
0
0
0
0
0
0
0
0
0
0
0
0
0
0
0
0
0
0
0
0
0
0
0
0
0
0
0
0
0
0
0
0
0
0
0
0
0
0
0
0
0
0
0
0
0
0
0
0
0
0
0
0
0
0
0
0
0
0
0
0
0
0
0
0
0
0
0
0
0
0
0
0
0
0
0
0
0
0
0
0
0
0
0
0
0
0
0
0
0
0
0
0
0
0
0
0
0
0
0
0
0
0
0
0
0
0
0
0
0
0
0
0
0
0
0
0
0
0
0
0
0
0
0
0
0
0
0
0
0
0
0
0
0
0
0
0
0
0
0
0
0
0
0
0
0
0
0
0
0
0
0
0
0
0
0
0
0
0
0
0
0
0
0
0
0
0
0
0
0
0
0
0
0
0
0
0
0
0
0
0
0
0
0
0
0
0
0
0
0
0
0
0
0
0
0
0
0
0
0
0
0
0
0
0
0
0
0
0
0
0
0
0
0
0
0
0
0
0
0
0
0
0
0
0
0
0
0
0
0
0
0
0
0
0
0
0
0
0
0
0
0
0
0
0
0
0
0
0
0
0
0
0
0
0
0
0
0
0
0
0
0
0
0
0
0
0
0
0
0
0
0
0
0
0
0
0
0
0
0
0
0
0
0
0
0
0
0
0
0
0
0
0
0
0
0
0
0
0
0
0
0
0
0
0
0
0
0
0
0
0
0
0
0
0
0
0
0
0
0
0
0
0
0
0
0
0
0
0
0
0
0
0
0
0
0
0
0
0
0
0
0
0
0
0
0
0
0
0
0
0
0
0
0
0
0
0
0
0
0
0
0
0
0
0
0
0
0
0
0
0
0
0
0
0
0
0
0
0
0
0
0
0
0
0
0
0
0
0
0
0
0
0
0
0
0
0
0
0
0
0
0
0
0
0
0
0
0
0
0
0
0
0
0
0
0
0
0
0
0
0
0
0
0
0
0
0
0
0
0
0
0
0
0
0
0
0
0
0
0
0
0
0
0
0
0
0
0
0
0
0
0
0
0
0
0
0
0
0
0
0
0
0
0
0
0
0
0
0
0
0
0
0
0
0
0
0
0
0
0
0
0
0
0
0
0
0
0
0
0
0
0
0
0
0
0
0
0
0
0
0
0
0
0
0
0
0
0
0
0
0
0
0
0
0
0
0
0
0
0
0
0
0
0
0
0
0
0
0
0
0
0
0
0
0
0
0
0
0
0
0
0
0
0
0
0
0
0
0
0
0
0
0
0
0
0
0
0
0
0
0
0
0
0
0
0
0
0
0
0
0
0
0
0
0
0
0
0
0
0
0
0
0
0
0
0
0
0
0
0
0
0
0
0
0
0
0
0
0
0
0
0
0
0
0
0
0
0
0
0
0
0
0
0
0
0
0
0
0
0
0
0
0
0
0
0
0
0
0
0
0
0
0
0
0
0
0
0
0
0
0
0
0
0
0
0
0
0
0
0
0
0
0
0
0
0
0
0
0
0
0
0
0
0
0
0
0
0
0
0
0
0
0
0
0
0
0
0
0
0
0
0
0
0
0
0
0
0
0
0
0
0
0
0
0
0
0
0
0
0
0
0
0
0
0
0
0
0
0
0
0
0
0
0
0
0
0
0
0
0
0
0
0
0
0
0
0
0
0
0
0
0
0
0
0
0
0
0
0
0
0
0
0
0
0
0
0
0
0
0
0
0
0
0
0
0
0
0
0
0
0
0
0
0
0
0
0
0
0
0
0
0
0
0
0
0
0
0
0
0
0
0
0
0
0
0
0
0
0
0
0
0
0
0
0
0
0
0
0
0
0
0
0
0
0
0
0
0
0
0
0
0
0
0
0
0
0
0
0
0
0
0
0
0
0
0
0
0
0
0
0
0
0
0
0
0
0
0
0
0
0
0
0
0
0
0
0
0
0
0
0
0
0
0
0
0
0
0
0
0
0
0
0
0
0
0
0
0
0
0
0
0
0
0
0
0
0
0
0
0
0
0
0
0
0
0
0
0
0
0
0
0
0
0
0
0
0
0
0
0
0
0
0
0
0
0
0
0
0
0
0
0
0
0
0
0
0
0
0
0
0
0
0
0
0
0
0
0
0
0
0
0
0
0
0
0
0
0
0
0
0
0
0
0
0
0
0
0
0
0
0
0
0
0
0
0
0
0
0
0
0
0
0
0
0
0
0
0
0
0
0
0
0
0
0
0
0
0
0
0
0
0
0
0
0
0
0
0
0
0
0
0
0
0
0
0
0
0
0
0
0
0
0
0
0
0
0
0
0
0
0
0
0
0
0
0
0
0
0
0
0
0
0
0
0
0
0
0
0
0
0
0
0
0
0
0
0
0
0
0
0
0
0
0
0
0
0
0
0
0
0
0
0
0
0
0
0
0
0
0
0
0
0
0
0
0
0
0
0
0
0
0
0
0
0
0
0
0
0
0
0
0
0
0
0
0
0
0
0
0
0
0
0
0
0
0
0
0
0
0
0
0
0
0
0
0
0
0
0
0
0
0
0
0
0
0
0
0
0
0
0
0
0
0
0
0
0
0
0
0
0
0
0
0
0
0
0
0
0
0
0
0
0
0
0
0
0
0
0
0
0
0
0
0
0
0
0
0
0
0
0
0
0
0
0
0
0
0
0
0
0
0
0
0
0
0
0
0
0
0
0
0
0
0
0
0
0
0
0
0
0
0
0
0
0
0
0
0
0
0
0
0
0
0
0
0
0
0
0
0
0
0
0
0
0
0
0
0
0
0
0
0
0
0
0
0
0
0
0
0
0
0
0
0
0
0
0
0
0
0
0
0
0
0
0
0
0
0
0
0
0
0
0
0
0
0
0
0
0
0
0
0
0
0
0
0
0
0
0
0
0
0
0
0
0
0
0
0
0
0
0
0
0
0
0
0
0
0
0
0
0
0
0
0
0
0
0
0
0
0
0
0
0
0
0
0
0
0
0
0
0
0
0
0
0
0
0
0
0
0
0
0
0
0
0
0
0
0
0
0
0
0
0
0
0
0
0
0
0
0
0
0
0
0
0
0
0
0
0
0
0
0
0
0
0
0
0
0
0
0
0
0
0
0
0
0
0
0
0
0
0
0
0
0
0
0
0
0
0
0
0
0
0
0
0
0
0
0
0
0
0
0
0
0
0
0
0
0
0
0
0
0
0
0
0
0
0
0
0
0
0
0
0
0
0
0
0
0
0
0
0
0
0
0
0
0
0
0
0
0
0
0
0
0
0
0
0
0
0
0
0
0
0
0
0
0
0
0
0
0
0
0
0
0
0.0776415
0.052903
0.0436505
0.0357426
0.03048
0.0271088
0.0248019
0.023116
0.0218008
0.0207277
0.0198235
0.0190436
0.0183596
0.0177519
0.0172066
0.0167134
0.0162643
0.0158532
0.0154749
0.0151254
0.0148012
0.0144993
0.0142174
0.0139533
0.0137051
0.0134714
0.0132506
0.0130416
0.0128434
0.0126549
0.0124753
0.0123039
0.0121401
0.0119833
0.0118328
0.0116884
0.0115494
0.0114156
0.0112866
0.0111621
0.0110418
0.0109254
0.0108128
0.0107037
0.0105979
0.0104952
0.0103955
0.0102987
0.0102045
0.0101129
0.0100238
0.00993702
0.00985251
0.00977015
0.00968989
0.00961163
0.00953532
0.00946088
0.00938825
0.00931738
0.00924822
0.0091807
0.0091148
0.00905047
0.00898765
0.00892633
0.00886645
0.00880799
0.00875091
0.00869518
0.00864077
0.00858765
0.00853579
0.00848518
0.00843578
0.00838757
0.00834052
0.00829462
0.00824985
0.00820619
0.00816361
0.00812211
0.00808166
0.00804226
0.00800388
0.0079665
0.0079301
0.00789466
0.00786015
0.00782653
0.00779376
0.00776179
0.00773058
0.00770007
0.00767022
0.00764096
0.00761227
0.00758412
0.00755652
0.0075295
0.00750311
0.00747746
0.00745268
0.00742892
0.00740635
0.00738515
0.00736544
0.00734731
0.00733074
0.00731562
0.00730167
0.00728844
0.00727534
0.00726163
0.0072465
0.00722912
0.00720874
0.0071849
0.0071575
0.00712701
0.00709463
0.00706237
0.00703311
0.00701055
0.00699905
0.0070033
0.00702784
0.00707645
0.00715136
0.00725241
0.0073762
0.00751523
0.00765727
0.00778494
0.00787577
0.00790265
0.00783505
0.007641
0.00728984
0.00675614
0.00602446
0.00509506
0.00398991
0.00275833
0.00148166
0.000273516
-0.000723958
-0.00134958
-0.00143824
-0.000838259
0.000571519
0.00286912
0.00608141
0.0101832
0.0151031
0.0207284
0.0269177
0.0335152
0.0403505
0.047236
0.0539922
0.0604604
0.0664689
0.0718121
0.0763011
0.0798407
0.0824342
0.0841176
0.0849044
0.0847898
0.0837863
0.0819462
0.0793594
0.0761399
0.0724118
0.0683013
0.0639307
0.0594144
0.0548553
0.0503424
0.0459487
0.0417315
0.037733
0.0339814
0.0304934
0.0272762
0.0243289
0.0216449
0.0192135
0.0170208
0.0150512
0.0132883
0.0117151
0.010315
0.00907186
0.00797041
0.00699628
0.00613616
0.00537779
0.00470999
0.00412262
0.00360651
0.00315342
0.00275599
0.00240762
0.00210247
0.00183534
0.0016016
0.00139719
0.00121851
0.00106239
0.000926026
0.000806964
0.000703042
0.000612363
0.000533264
0.000464283
0.000404143
0.000351723
0.000306044
0.000266247
0.000231582
0.000201395
0.000175111
0.000152232
0.000132319
0.000114991
9.99165e-05
8.68036e-05
7.53994e-05
6.5483e-05
5.68617e-05
4.93678e-05
4.28548e-05
3.71953e-05
3.22782e-05
2.80069e-05
2.42971e-05
2.10756e-05
1.82784e-05
1.58502e-05
1.37425e-05
1.19133e-05
1.03261e-05
8.94901e-06
7.75447e-06
6.71841e-06
5.81995e-06
5.04091e-06
4.36554e-06
3.78011e-06
3.27273e-06
2.83305e-06
2.4521e-06
2.12208e-06
1.83622e-06
1.58865e-06
1.37426e-06
1.18865e-06
1.02796e-06
8.88876e-07
7.68504e-07
6.64342e-07
5.74221e-07
4.96258e-07
4.28823e-07
3.70501e-07
3.20069e-07
2.76464e-07
2.38768e-07
2.06184e-07
1.78024e-07
1.53689e-07
1.32663e-07
1.14498e-07
9.88075e-08
8.5256e-08
7.35534e-08
6.34487e-08
5.47251e-08
4.71947e-08
4.06951e-08
3.50861e-08
3.02462e-08
2.60705e-08
2.24683e-08
1.93613e-08
1.66818e-08
1.43712e-08
1.23791e-08
1.06617e-08
9.18132e-09
7.90547e-09
6.80602e-09
5.8587e-09
5.04258e-09
4.33957e-09
3.73407e-09
3.21263e-09
2.76364e-09
2.37708e-09
2.04432e-09
1.75791e-09
1.51142e-09
1.29931e-09
1.11683e-09
9.59838e-10
8.24805e-10
7.08673e-10
6.08809e-10
5.22945e-10
4.4913e-10
3.8568e-10
3.31148e-10
2.84287e-10
2.44023e-10
2.09432e-10
1.79719e-10
1.542e-10
1.32285e-10
1.13469e-10
9.73149e-11
8.34488e-11
7.15481e-11
6.13356e-11
5.25732e-11
4.50559e-11
3.86078e-11
3.30775e-11
2.83352e-11
2.42691e-11
2.07832e-11
1.77952e-11
1.52343e-11
1.30398e-11
1.11595e-11
9.54863e-12
8.16882e-12
6.98713e-12
5.97535e-12
5.10932e-12
4.36837e-12
3.73474e-12
3.19316e-12
2.73045e-12
2.33516e-12
1.99737e-12
1.70851e-12
1.46122e-12
1.2492e-12
1.0671e-12
9.10323e-13
7.74874e-13
6.57318e-13
5.54812e-13
4.65268e-13
3.87536e-13
3.21479e-13
2.67798e-13
2.27512e-13
2.01135e-13
1.87747e-13
1.84279e-13
1.85364e-13
1.83992e-13
1.72989e-13
1.47014e-13
1.04523e-13
4.90236e-14
-1.09644e-14
-6.34844e-14
-9.60496e-14
-9.91878e-14
-6.96302e-14
-1.21208e-14
6.08678e-14
1.31665e-13
1.81654e-13
1.96172e-13
1.68683e-13
1.03008e-13
1.28588e-14
-8.13066e-14
-1.57342e-13
-1.97049e-13
-1.90868e-13
-1.40355e-13
-5.77857e-14
3.70044e-14
1.21654e-13
1.76837e-13
1.90887e-13
1.62328e-13
9.97609e-14
1.9259e-14
-5.99222e-14
-1.20132e-13
-1.49387e-13
-1.43742e-13
-1.07543e-13
-5.16589e-14
9.65626e-15
6.24009e-14
9.60127e-14
1.05397e-13
9.14455e-14
6.00962e-14
2.03524e-14
-1.81486e-14
-4.73786e-14
-6.24787e-14
-6.23722e-14
-4.94301e-14
-2.84116e-14
-5.03722e-15
1.54185e-14
2.92003e-14
3.46228e-14
3.20684e-14
2.35294e-14
1.18829e-14
1.08464e-16
-9.36652e-15
-1.50731e-14
-1.66191e-14
-1.45522e-14
-1.0049e-14
-4.53567e-15
6.63118e-16
4.5779e-15
6.71646e-15
7.05806e-15
5.94986e-15
3.95023e-15
1.66469e-15
-3.88974e-16
-1.86491e-15
-2.61732e-15
-2.68038e-15
-2.21617e-15
-1.44959e-15
-6.0712e-16
1.28929e-16
6.45146e-16
9.01294e-16
9.1864e-16
7.59069e-16
5.01742e-16
2.22743e-16
-1.8988e-17
-1.88355e-16
-2.74164e-16
-2.8443e-16
-2.39255e-16
-1.63398e-16
-8.01209e-17
-7.15063e-18
4.50639e-17
7.31541e-17
7.93163e-17
6.91836e-17
4.96895e-17
2.7347e-17
7.14821e-18
-7.89714e-18
-1.6696e-17
-1.96619e-17
-1.81505e-17
-1.3899e-17
-8.57729e-18
-3.49936e-18
5.02512e-19
3.07089e-18
4.22953e-18
4.25003e-18
3.5175e-18
2.42099e-18
1.28096e-18
3.14474e-19
-3.68308e-19
-7.46692e-19
-8.61677e-19
-7.86675e-19
-6.02705e-19
-3.81074e-19
-1.7405e-19
-1.23821e-20
9.23791e-20
1.42924e-19
1.50473e-19
1.29632e-19
9.4547e-20
5.65694e-20
2.32995e-20
-1.34253e-21
-1.64148e-20
-2.29885e-20
-2.31927e-20
-1.94369e-20
-1.38837e-20
-8.16751e-21
-3.31608e-21
1.91248e-22
2.29184e-21
3.18688e-21
3.20272e-21
2.68528e-21
1.933e-21
1.16475e-21
5.14376e-22
4.20811e-23
-2.46069e-22
-3.77253e-22
-3.93778e-22
-3.39767e-22
-2.52986e-22
-1.61105e-22
-8.12229e-23
-2.13803e-23
1.70244e-23
3.66994e-23
4.22934e-23
3.88103e-23
3.06311e-23
2.1053e-23
1.22045e-23
5.19164e-24
3.51966e-25
-2.47239e-24
-3.69653e-24
-3.81451e-24
-3.28492e-24
-2.47169e-24
-1.62624e-24
-8.9574e-25
-3.44828e-25
1.86623e-26
2.20055e-25
2.99182e-25
2.9761e-25
2.51239e-25
1.87094e-25
1.22978e-25
6.8759e-26
2.83531e-26
1.77313e-27
-1.31203e-26
-1.9314e-26
-1.97916e-26
-1.70685e-26
-1.30118e-26
-8.8441e-27
-5.24785e-27
-2.50604e-27
-6.41545e-28
4.67041e-28
1.00028e-27
1.14286e-27
1.05335e-27
8.52047e-28
6.20344e-28
4.06435e-28
2.33453e-28
1.07659e-28
2.53834e-29
-2.17702e-29
-4.34466e-29
-4.85089e-29
-4.40836e-29
-3.53201e-29
-2.5562e-29
-1.67084e-29
-9.62079e-30
-4.48999e-30
-1.12914e-30
8.18025e-31
1.74333e-30
1.99948e-30
1.86718e-30
1.54867e-30
1.1761e-30
8.26087e-31
5.35412e-31
3.14956e-31
1.60632e-31
6.11925e-32
3.28228e-33
-2.56658e-32
-3.60564e-32
-3.57354e-32
-3.01507e-32
-2.2773e-32
-1.55888e-32
-9.55895e-33
-4.99535e-33
-1.84146e-33
1.34742e-34
1.21947e-33
1.68502e-33
1.75776e-33
1.60886e-33
1.3574e-33
1.07947e-33
8.18685e-34
5.96078e-34
4.1823e-34
2.83351e-34
1.85518e-34
1.17388e-34
7.17693e-35
4.24152e-35
2.4305e-35
1.36385e-35
7.68172e-36
4.55798e-36
3.03815e-36
2.35698e-36
2.06543e-36
1.9194e-36
1.80055e-36
1.66252e-36
1.49657e-36
1.31064e-36
1.11779e-36
9.3025e-37
7.57136e-37
6.03945e-37
4.73031e-37
3.64387e-37
2.76461e-37
2.06839e-37
1.52762e-37
1.11477e-37
8.04414e-38
5.74388e-38
4.06095e-38
2.84434e-38
1.97458e-38
1.35923e-38
9.28127e-39
6.28875e-39
4.22963e-39
2.82451e-39
1.87328e-39
1.23419e-39
8.07936e-40
5.25623e-40
3.39903e-40
2.18522e-40
1.39689e-40
8.88018e-41
5.6148e-41
3.53148e-41
2.20974e-41
1.37574e-41
8.52297e-42
5.25471e-42
3.22441e-42
1.96941e-42
1.19741e-42
7.24783e-43
4.36779e-43
2.62083e-43
1.56592e-43
9.3171e-44
5.5208e-44
3.25807e-44
1.91505e-44
1.12121e-44
6.53889e-45
3.79885e-45
2.19864e-45
1.26775e-45
7.28289e-46
4.16859e-46
2.37743e-46
1.35107e-46
7.65091e-47
4.31752e-47
2.42804e-47
1.3608e-47
7.60087e-48
4.23136e-48
2.34777e-48
1.2984e-48
7.15724e-49
3.93265e-49
2.15396e-49
1.17603e-49
6.40079e-50
3.47296e-50
1.87857e-50
1.01304e-50
5.44637e-51
2.91932e-51
1.56013e-51
8.31289e-52
4.41639e-52
2.33946e-52
1.23568e-52
6.50797e-53
3.4178e-53
1.78985e-53
9.34682e-54
4.8674e-54
2.52769e-54
1.30904e-54
6.76067e-55
3.48213e-55
1.78865e-55
9.16298e-56
4.68154e-56
2.38554e-56
1.21238e-56
6.14538e-57
3.1069e-57
1.56667e-57
7.8797e-58
3.953e-58
1.97805e-58
9.87293e-59
4.9154e-59
2.44108e-59
1.20927e-59
5.97564e-60
2.9456e-60
1.44842e-60
7.10488e-61
3.47666e-61
1.69713e-61
8.26465e-62
4.01506e-62
1.94592e-62
9.40864e-63
4.5384e-63
2.18403e-63
1.04857e-63
5.02257e-64
2.4002e-64
1.14437e-64
5.44362e-65
2.58354e-65
1.22336e-65
5.77974e-66
2.72447e-66
1.28139e-66
6.0132e-67
2.81555e-67
1.3154e-67
6.13182e-68
2.85211e-68
1.32371e-68
6.13012e-69
2.8327e-69
1.30615e-69
6.00962e-70
2.7591e-70
1.26403e-70
5.7786e-71
2.63612e-71
1.20002e-71
5.45122e-72
2.47108e-72
1.11782e-72
5.04605e-73
2.27315e-73
1.02189e-73
4.58445e-74
2.05246e-74
9.17011e-75
4.08872e-75
1.81935e-75
8.07913e-76
3.58044e-76
1.58355e-76
6.9897e-77
3.07904e-77
1.35365e-77
5.9393e-78
2.60078e-78
1.13662e-78
4.95763e-79
2.15814e-79
9.37642e-80
4.06582e-80
1.75961e-80
7.60053e-81
3.27667e-81
1.40989e-81
6.05491e-82
2.59536e-82
1.11035e-82
4.74132e-83
2.02076e-83
8.59625e-84
3.64994e-84
1.54685e-84
6.54329e-85
2.7627e-85
1.1643e-85
4.89766e-86
2.05641e-86
8.61843e-87
3.60536e-87
1.50547e-87
6.27483e-88
2.61059e-88
1.08414e-88
4.49413e-89
1.8596e-89
7.68087e-90
3.16679e-90
1.30332e-90
5.35431e-91
2.19574e-91
8.9885e-92
3.67301e-92
1.49826e-92
6.1008e-93
2.47983e-93
1.00622e-93
4.07573e-94
1.648e-94
6.65202e-95
2.68037e-95
1.07816e-95
4.32932e-96
1.73543e-96
6.94462e-97
2.77424e-97
1.10636e-97
4.4046e-98
1.75056e-98
6.94561e-99
2.75111e-99
1.08785e-99
4.29437e-100
1.69238e-100
6.65838e-101
2.61524e-101
1.02548e-101
4.01441e-102
1.56889e-102
6.12131e-103
2.38439e-103
9.2724e-104
3.59991e-104
1.39533e-104
5.39948e-105
2.08601e-105
8.04583e-106
3.09826e-106
1.19113e-106
4.57192e-107
1.752e-107
6.703e-108
2.56038e-108
9.76434e-109
3.71779e-109
1.41329e-109
5.36397e-110
2.03259e-110
7.68991e-111
2.90473e-111
1.09547e-111
4.1249e-112
1.55075e-112
5.82083e-113
2.18147e-113
8.16266e-114
3.04956e-114
1.13754e-114
4.23661e-115
1.57542e-115
5.84929e-116
2.16839e-116
8.02607e-117
2.96619e-117
1.09453e-117
4.03267e-118
1.48351e-118
5.44914e-119
1.99849e-119
7.31841e-120
2.67591e-120
9.76943e-121
3.56131e-121
1.29627e-121
4.71116e-122
1.70965e-122
6.19493e-123
2.24138e-123
8.09738e-124
2.92097e-124
1.05211e-124
3.78403e-125
1.35895e-125
4.87312e-126
1.7449e-126
6.23872e-127
2.22731e-127
7.94015e-128
2.82644e-128
1.00465e-128
3.56582e-129
1.26377e-129
4.47247e-130
1.5805e-130
5.57717e-131
1.96519e-131
6.91462e-132
2.42944e-132
8.52354e-133
2.98614e-133
1.04467e-133
3.64942e-134
1.27306e-134
4.43463e-135
1.54258e-135
5.35822e-136
1.85857e-136
6.43755e-137
2.22664e-137
7.69073e-138
2.65261e-138
9.13627e-139
3.14236e-139
1.07928e-139
3.70174e-140
1.26786e-140
4.33643e-141
1.48112e-141
5.05177e-142
1.72066e-142
5.85258e-143
1.98792e-143
6.743e-144
2.28407e-144
7.72623e-145
2.60995e-145
8.80441e-146
2.96603e-146
9.97835e-147
3.35235e-147
1.12473e-147
3.76843e-148
1.26091e-148
4.21325e-149
1.40594e-149
4.68519e-150
1.55921e-150
5.18201e-151
1.71992e-151
5.70082e-152
1.88705e-152
6.23809e-153
2.0594e-153
6.7897e-154
2.23554e-154
7.35089e-155
2.41391e-155
7.9164e-156
2.59275e-156
8.48049e-157
2.77019e-157
9.03707e-158
2.94425e-158
9.57975e-159
3.1129e-159
1.0102e-159
3.27405e-160
1.05973e-160
3.42565e-161
1.10592e-161
3.5657e-162
1.14816e-162
3.69232e-163
1.18587e-163
3.80376e-164
1.21852e-164
3.89845e-165
1.24565e-165
3.97505e-166
1.26688e-166
4.03248e-167
1.28191e-167
4.06994e-168
1.29053e-168
4.08692e-169
1.29263e-169
4.08322e-170
1.2882e-170
4.05896e-171
1.27732e-171
4.01456e-172
1.26018e-172
3.95076e-173
1.23704e-173
3.86854e-174
1.20828e-174
3.76916e-175
1.17431e-175
3.65408e-176
1.13563e-176
3.52498e-177
1.09279e-177
3.38364e-178
1.04639e-178
3.23197e-179
9.97025e-180
3.07193e-180
9.45331e-181
2.90552e-181
8.91933e-182
2.7347e-182
8.37448e-183
2.56139e-183
7.82466e-184
2.38741e-184
7.27549e-185
2.21447e-185
6.73214e-186
2.04414e-186
6.19932e-187
1.87782e-187
5.68121e-188
1.71675e-188
5.18143e-189
1.56197e-189
4.70301e-190
1.41436e-190
4.24839e-191
1.27459e-191
3.81946e-192
1.14318e-192
3.41754e-193
1.02046e-193
3.04344e-194
9.06608e-195
2.6975e-195
8.0166e-196
2.37962e-196
7.05529e-197
2.08935e-197
6.18013e-198
1.82589e-198
5.38821e-199
1.5882e-199
4.67585e-200
1.37502e-200
4.03879e-201
1.18492e-201
3.47234e-202
1.01637e-202
2.97151e-203
8.67764e-204
2.53118e-204
7.37471e-205
2.14618e-205
6.23858e-206
1.81137e-206
5.25327e-207
1.52179e-207
4.40333e-208
1.27266e-208
3.67407e-209
1.05946e-209
3.05162e-210
8.77971e-211
2.52311e-211
7.24269e-212
2.07669e-212
5.94771e-213
1.70152e-213
4.86223e-214
1.38785e-214
3.95696e-215
1.12691e-215
3.20577e-216
9.10931e-217
2.58555e-217
7.33048e-218
2.076e-218
5.87268e-219
1.65944e-219
4.68384e-220
1.32056e-220
3.71907e-221
1.04623e-221
2.93993e-222
8.25215e-223
2.31375e-223
6.48015e-224
1.8129e-224
5.06624e-225
1.41422e-225
3.94342e-226
1.09838e-226
3.05599e-227
8.49333e-228
2.35791e-228
6.53887e-229
1.81136e-229
5.01223e-230
1.38543e-230
3.8253e-231
1.05505e-231
2.90678e-232
7.9998e-233
2.19925e-233
6.03951e-234
1.65676e-234
4.5399e-235
1.2427e-235
3.39796e-236
9.28118e-237
2.53234e-237
6.90197e-238
1.87914e-238
5.11071e-239
1.38847e-239
3.76817e-240
1.02155e-240
2.76647e-241
7.48393e-242
2.02242e-242
5.45949e-243
1.47222e-243
3.9658e-244
1.06716e-244
2.8686e-245
7.70286e-246
2.06621e-246
5.53656e-247
1.482e-247
3.96277e-248
1.05851e-248
2.82444e-249
7.52862e-250
2.00468e-250
5.33235e-251
1.4169e-251
3.76103e-252
9.9729e-253
2.6417e-253
6.99027e-254
1.84779e-254
4.87935e-255
1.28712e-255
3.39178e-256
8.92866e-257
2.34799e-257
6.16819e-258
1.61872e-258
4.24363e-259
1.11136e-259
2.90756e-260
7.59899e-261
1.98398e-261
5.17455e-262
1.34823e-262
3.50923e-263
9.12463e-264
2.37015e-264
6.15026e-265
1.5943e-265
4.1286e-266
1.06806e-266
2.76024e-267
7.1262e-268
1.83793e-268
4.73545e-269
1.21886e-269
3.13407e-270
8.05053e-271
2.06587e-271
5.29596e-272
1.35628e-272
3.4699e-273
8.8685e-274
2.26437e-274
5.77576e-275
1.47176e-275
3.74654e-276
9.52776e-277
2.42057e-277
6.14344e-278
1.55766e-278
3.94551e-279
9.98395e-280
2.52389e-280
6.37393e-281
1.6081e-281
4.05314e-282
1.02056e-282
2.5672e-283
6.45134e-284
1.61962e-284
4.06208e-285
1.01779e-285
2.54765e-286
6.37081e-287
1.59157e-287
3.97218e-288
9.90395e-289
2.46697e-289
6.13895e-290
1.52616e-290
3.7904e-291
9.40473e-292
2.33123e-292
5.773e-293
1.42822e-293
3.52996e-294
8.71611e-295
2.15008e-295
5.29868e-296
1.30455e-296
3.20874e-297
7.88478e-298
1.93565e-298
4.74729e-299
1.16318e-299
2.84728e-300
6.96303e-301
1.70118e-301
4.15226e-302
1.01252e-302
2.46666e-303
6.00342e-304
1.45974e-304
3.54598e-305
8.60565e-306
2.0865e-306
5.05406e-307
1.22307e-307
2.95698e-308
7.14224e-309
1.72349e-309
4.15502e-310
1.00075e-310
2.40808e-311
5.78902e-312
1.39037e-312
3.33615e-313
7.99748e-314
1.91537e-314
4.58294e-315
1.09554e-315
2.61641e-316
6.24276e-317
1.48813e-317
3.54406e-318
8.43251e-319
2.00452e-319
4.76082e-320
1.12993e-320
2.68278e-321
6.32404e-322
1.4822e-322
2.96439e-323
0
0
0
0
0
0
0
0
0
0
0
0
0
0
0
0
0
0
0
0
0
0
0
0
0
0
0
0
0
0
0
0
0
0
0
0
0
0
0
0
0
0
0
0
0
0
0
0
0
0
0
0
0
0
0
0
0
0
0
0
0
0
0
0
0
0
0
0
0
0
0
0
0
0
0
0
0
0
0
0
0
0
0
0
0
0
0
0
0
0
0
0
0
0
0
0
0
0
0
0
0
0
0
0
0
0
0
0
0
0
0
0
0
0
0
0
0
0
0
0
0
0
0
0
0
0
0
0
0
0
0
0
0
0
0
0
0
0
0
0
0
0
0
0
0
0
0
0
0
0
0
0
0
0
0
0
0
0
0
0
0
0
0
0
0
0
0
0
0
0
0
0
0
0
0
0
0
0
0
0
0
0
0
0
0
0
0
0
0
0
0
0
0
0
0
0
0
0
0
0
0
0
0
0
0
0
0
0
0
0
0
0
0
0
0
0
0
0
0
0
0
0
0
0
0
0
0
0
0
0
0
0
0
0
0
0
0
0
0
0
0
0
0
0
0
0
0
0
0
0
0
0
0
0
0
0
0
0
0
0
0
0
0
0
0
0
0
0
0
0
0
0
0
0
0
0
0
0
0
0
0
0
0
0
0
0
0
0
0
0
0
0
0
0
0
0
0
0
0
0
0
0
0
0
0
0
0
0
0
0
0
0
0
0
0
0
0
0
0
0
0
0
0
0
0
0
0
0
0
0
0
0
0
0
0
0
0
0
0
0
0
0.062787
0.0345542
0.0299574
0.025277
0.0221391
0.0200069
0.0184495
0.0172639
0.0163155
0.0155312
0.0148652
0.0142884
0.013781
0.0133294
0.0129237
0.0125563
0.0122216
0.0119149
0.0116326
0.0113716
0.0111293
0.0109037
0.0106929
0.0104953
0.0103096
0.0101346
0.00996925
0.00981273
0.00966419
0.00952296
0.0093884
0.00925997
0.00913718
0.00901959
0.0089068
0.00879848
0.00869429
0.00859396
0.00849723
0.00840386
0.00831364
0.00822639
0.00814193
0.00806009
0.00798075
0.00790375
0.00782899
0.00775635
0.00768573
0.00761704
0.00755019
0.0074851
0.00742171
0.00735994
0.00729974
0.00724104
0.00718379
0.00712795
0.00707346
0.0070203
0.00696841
0.00691775
0.00686831
0.00682003
0.0067729
0.00672688
0.00668194
0.00663807
0.00659523
0.0065534
0.00651255
0.00647268
0.00643375
0.00639575
0.00635866
0.00632245