# vtk DataFile Version 2.0
FlowField
ASCII
DATASET STRUCTURED_GRID
DIMENSIONS 1602 1 52
POINTS 83304 float
0 0 0
0.1 0 0
0.2 0 0
0.3 0 0
0.4 0 0
0.5 0 0
0.6 0 0
0.7 0 0
0.8 0 0
0.9 0 0
1 0 0
1.1 0 0
1.2 0 0
1.3 0 0
1.4 0 0
1.5 0 0
1.6 0 0
1.7 0 0
1.8 0 0
1.9 0 0
2 0 0
2.1 0 0
2.2 0 0
2.3 0 0
2.4 0 0
2.5 0 0
2.6 0 0
2.7 0 0
2.8 0 0
2.9 0 0
3 0 0
3.1 0 0
3.2 0 0
3.3 0 0
3.4 0 0
3.5 0 0
3.6 0 0
3.7 0 0
3.8 0 0
3.9 0 0
4 0 0
4.1 0 0
4.2 0 0
4.3 0 0
4.4 0 0
4.5 0 0
4.6 0 0
4.7 0 0
4.8 0 0
4.9 0 0
5 0 0
5.1 0 0
5.2 0 0
5.3 0 0
5.4 0 0
5.5 0 0
5.6 0 0
5.7 0 0
5.8 0 0
5.9 0 0
6 0 0
6.1 0 0
6.2 0 0
6.3 0 0
6.4 0 0
6.5 0 0
6.6 0 0
6.7 0 0
6.8 0 0
6.9 0 0
7 0 0
7.1 0 0
7.2 0 0
7.3 0 0
7.4 0 0
7.5 0 0
7.6 0 0
7.7 0 0
7.8 0 0
7.9 0 0
8 0 0
8.1 0 0
8.2 0 0
8.3 0 0
8.4 0 0
8.5 0 0
8.6 0 0
8.7 0 0
8.8 0 0
8.9 0 0
9 0 0
9.1 0 0
9.2 0 0
9.3 0 0
9.4 0 0
9.5 0 0
9.6 0 0
9.7 0 0
9.8 0 0
9.9 0 0
10 0 0
10.1 0 0
10.2 0 0
10.3 0 0
10.4 0 0
10.5 0 0
10.6 0 0
10.7 0 0
10.8 0 0
10.9 0 0
11 0 0
11.1 0 0
11.2 0 0
11.3 0 0
11.4 0 0
11.5 0 0
11.6 0 0
11.7 0 0
11.8 0 0
11.9 0 0
12 0 0
12.1 0 0
12.2 0 0
12.3 0 0
12.4 0 0
12.5 0 0
12.6 0 0
12.7 0 0
12.8 0 0
12.9 0 0
13 0 0
13.1 0 0
13.2 0 0
13.3 0 0
13.4 0 0
13.5 0 0
13.6 0 0
13.7 0 0
13.8 0 0
13.9 0 0
14 0 0
14.1 0 0
14.2 0 0
14.3 0 0
14.4 0 0
14.5 0 0
14.6 0 0
14.7 0 0
14.8 0 0
14.9 0 0
15 0 0
15.1 0 0
15.2 0 0
15.3 0 0
15.4 0 0
15.5 0 0
15.6 0 0
15.7 0 0
15.8 0 0
15.9 0 0
16 0 0
16.1 0 0
16.2 0 0
16.3 0 0
16.4 0 0
16.5 0 0
16.6 0 0
16.7 0 0
16.8 0 0
16.9 0 0
17 0 0
17.1 0 0
17.2 0 0
17.3 0 0
17.4 0 0
17.5 0 0
17.6 0 0
17.7 0 0
17.8 0 0
17.9 0 0
18 0 0
18.1 0 0
18.2 0 0
18.3 0 0
18.4 0 0
18.5 0 0
18.6 0 0
18.7 0 0
18.8 0 0
18.9 0 0
19 0 0
19.1 0 0
19.2 0 0
19.3 0 0
19.4 0 0
19.5 0 0
19.6 0 0
19.7 0 0
19.8 0 0
19.9 0 0
20 0 0
20.1 0 0
20.2 0 0
20.3 0 0
20.4 0 0
20.5 0 0
20.6 0 0
20.7 0 0
20.8 0 0
20.9 0 0
21 0 0
21.1 0 0
21.2 0 0
21.3 0 0
21.4 0 0
21.5 0 0
21.6 0 0
21.7 0 0
21.8 0 0
21.9 0 0
22 0 0
22.1 0 0
22.2 0 0
22.3 0 0
22.4 0 0
22.5 0 0
22.6 0 0
22.7 0 0
22.8 0 0
22.9 0 0
23 0 0
23.1 0 0
23.2 0 0
23.3 0 0
23.4 0 0
23.5 0 0
23.6 0 0
23.7 0 0
23.8 0 0
23.9 0 0
24 0 0
24.1 0 0
24.2 0 0
24.3 0 0
24.4 0 0
24.5 0 0
24.6 0 0
24.7 0 0
24.8 0 0
24.9 0 0
25 0 0
25.1 0 0
25.2 0 0
25.3 0 0
25.4 0 0
25.5 0 0
25.6 0 0
25.7 0 0
25.8 0 0
25.9 0 0
26 0 0
26.1 0 0
26.2 0 0
26.3 0 0
26.4 0 0
26.5 0 0
26.6 0 0
26.7 0 0
26.8 0 0
26.9 0 0
27 0 0
27.1 0 0
27.2 0 0
27.3 0 0
27.4 0 0
27.5 0 0
27.6 0 0
27.7 0 0
27.8 0 0
27.9 0 0
28 0 0
28.1 0 0
28.2 0 0
28.3 0 0
28.4 0 0
28.5 0 0
28.6 0 0
28.7 0 0
28.8 0 0
28.9 0 0
29 0 0
29.1 0 0
29.2 0 0
29.3 0 0
29.4 0 0
29.5 0 0
29.6 0 0
29.7 0 0
29.8 0 0
29.9 0 0
30 0 0
30.1 0 0
30.2 0 0
30.3 0 0
30.4 0 0
30.5 0 0
30.6 0 0
30.7 0 0
30.8 0 0
30.9 0 0
31 0 0
31.1 0 0
31.2 0 0
31.3 0 0
31.4 0 0
31.5 0 0
31.6 0 0
31.7 0 0
31.8 0 0
31.9 0 0
32 0 0
32.1 0 0
32.2 0 0
32.3 0 0
32.4 0 0
32.5 0 0
32.6 0 0
32.7 0 0
32.8 0 0
32.9 0 0
33 0 0
33.1 0 0
33.2 0 0
33.3 0 0
33.4 0 0
33.5 0 0
33.6 0 0
33.7 0 0
33.8 0 0
33.9 0 0
34 0 0
34.1 0 0
34.2 0 0
34.3 0 0
34.4 0 0
34.5 0 0
34.6 0 0
34.7 0 0
34.8 0 0
34.9 0 0
35 0 0
35.1 0 0
35.2 0 0
35.3 0 0
35.4 0 0
35.5 0 0
35.6 0 0
35.7 0 0
35.8 0 0
35.9 0 0
36 0 0
36.1 0 0
36.2 0 0
36.3 0 0
36.4 0 0
36.5 0 0
36.6 0 0
36.7 0 0
36.8 0 0
36.9 0 0
37 0 0
37.1 0 0
37.2 0 0
37.3 0 0
37.4 0 0
37.5 0 0
37.6 0 0
37.7 0 0
37.8 0 0
37.9 0 0
38 0 0
38.1 0 0
38.2 0 0
38.3 0 0
38.4 0 0
38.5 0 0
38.6 0 0
38.7 0 0
38.8 0 0
38.9 0 0
39 0 0
39.1 0 0
39.2 0 0
39.3 0 0
39.4 0 0
39.5 0 0
39.6 0 0
39.7 0 0
39.8 0 0
39.9 0 0
40 0 0
40.1 0 0
40.2 0 0
40.3 0 0
40.4 0 0
40.5 0 0
40.6 0 0
40.7 0 0
40.8 0 0
40.9 0 0
41 0 0
41.1 0 0
41.2 0 0
41.3 0 0
41.4 0 0
41.5 0 0
41.6 0 0
41.7 0 0
41.8 0 0
41.9 0 0
42 0 0
42.1 0 0
42.2 0 0
42.3 0 0
42.4 0 0
42.5 0 0
42.6 0 0
42.7 0 0
42.8 0 0
42.9 0 0
43 0 0
43.1 0 0
43.2 0 0
43.3 0 0
43.4 0 0
43.5 0 0
43.6 0 0
43.7 0 0
43.8 0 0
43.9 0 0
44 0 0
44.1 0 0
44.2 0 0
44.3 0 0
44.4 0 0
44.5 0 0
44.6 0 0
44.7 0 0
44.8 0 0
44.9 0 0
45 0 0
45.1 0 0
45.2 0 0
45.3 0 0
45.4 0 0
45.5 0 0
45.6 0 0
45.7 0 0
45.8 0 0
45.9 0 0
46 0 0
46.1 0 0
46.2 0 0
46.3 0 0
46.4 0 0
46.5 0 0
46.6 0 0
46.7 0 0
46.8 0 0
46.9 0 0
47 0 0
47.1 0 0
47.2 0 0
47.3 0 0
47.4 0 0
47.5 0 0
47.6 0 0
47.7 0 0
47.8 0 0
47.9 0 0
48 0 0
48.1 0 0
48.2 0 0
48.3 0 0
48.4 0 0
48.5 0 0
48.6 0 0
48.7 0 0
48.8 0 0
48.9 0 0
49 0 0
49.1 0 0
49.2 0 0
49.3 0 0
49.4 0 0
49.5 0 0
49.6 0 0
49.7 0 0
49.8 0 0
49.9 0 0
50 0 0
50.1 0 0
50.2 0 0
50.3 0 0
50.4 0 0
50.5 0 0
50.6 0 0
50.7 0 0
50.8 0 0
50.9 0 0
51 0 0
51.1 0 0
51.2 0 0
51.3 0 0
51.4 0 0
51.5 0 0
51.6 0 0
51.7 0 0
51.8 0 0
51.9 0 0
52 0 0
52.1 0 0
52.2 0 0
52.3 0 0
52.4 0 0
52.5 0 0
52.6 0 0
52.7 0 0
52.8 0 0
52.9 0 0
53 0 0
53.1 0 0
53.2 0 0
53.3 0 0
53.4 0 0
53.5 0 0
53.6 0 0
53.7 0 0
53.8 0 0
53.9 0 0
54 0 0
54.1 0 0
54.2 0 0
54.3 0 0
54.4 0 0
54.5 0 0
54.6 0 0
54.7 0 0
54.8 0 0
54.9 0 0
55 0 0
55.1 0 0
55.2 0 0
55.3 0 0
55.4 0 0
55.5 0 0
55.6 0 0
55.7 0 0
55.8 0 0
55.9 0 0
56 0 0
56.1 0 0
56.2 0 0
56.3 0 0
56.4 0 0
56.5 0 0
56.6 0 0
56.7 0 0
56.8 0 0
56.9 0 0
57 0 0
57.1 0 0
57.2 0 0
57.3 0 0
57.4 0 0
57.5 0 0
57.6 0 0
57.7 0 0
57.8 0 0
57.9 0 0
58 0 0
58.1 0 0
58.2 0 0
58.3 0 0
58.4 0 0
58.5 0 0
58.6 0 0
58.7 0 0
58.8 0 0
58.9 0 0
59 0 0
59.1 0 0
59.2 0 0
59.3 0 0
59.4 0 0
59.5 0 0
59.6 0 0
59.7 0 0
59.8 0 0
59.9 0 0
60 0 0
60.1 0 0
60.2 0 0
60.3 0 0
60.4 0 0
60.5 0 0
60.6 0 0
60.7 0 0
60.8 0 0
60.9 0 0
61 0 0
61.1 0 0
61.2 0 0
61.3 0 0
61.4 0 0
61.5 0 0
61.6 0 0
61.7 0 0
61.8 0 0
61.9 0 0
62 0 0
62.1 0 0
62.2 0 0
62.3 0 0
62.4 0 0
62.5 0 0
62.6 0 0
62.7 0 0
62.8 0 0
62.9 0 0
63 0 0
63.1 0 0
63.2 0 0
63.3 0 0
63.4 0 0
63.5 0 0
63.6 0 0
63.7 0 0
63.8 0 0
63.9 0 0
64 0 0
64.1 0 0
64.2 0 0
64.3 0 0
64.4 0 0
64.5 0 0
64.6 0 0
64.7 0 0
64.8 0 0
64.9 0 0
65 0 0
65.1 0 0
65.2 0 0
65.3 0 0
65.4 0 0
65.5 0 0
65.6 0 0
65.7 0 0
65.8 0 0
65.9 0 0
66 0 0
66.1 0 0
66.2 0 0
66.3 0 0
66.4 0 0
66.5 0 0
66.6 0 0
66.7 0 0
66.8 0 0
66.9 0 0
67 0 0
67.1 0 0
67.2 0 0
67.3 0 0
67.4 0 0
67.5 0 0
67.6 0 0
67.7 0 0
67.8 0 0
67.9 0 0
68 0 0
68.1 0 0
68.2 0 0
68.3 0 0
68.4 0 0
68.5 0 0
68.6 0 0
68.7 0 0
68.8 0 0
68.9 0 0
69 0 0
69.1 0 0
69.2 0 0
69.3 0 0
69.4 0 0
69.5 0 0
69.6 0 0
69.7 0 0
69.8 0 0
69.9 0 0
70 0 0
70.1 0 0
70.2 0 0
70.3 0 0
70.4 0 0
70.5 0 0
70.6 0 0
70.7 0 0
70.8 0 0
70.9 0 0
71 0 0
71.1 0 0
71.2 0 0
71.3 0 0
71.4 0 0
71.5 0 0
71.6 0 0
71.7 0 0
71.8 0 0
71.9 0 0
72 0 0
72.1 0 0
72.2 0 0
72.3 0 0
72.4 0 0
72.5 0 0
72.6 0 0
72.7 0 0
72.8 0 0
72.9 0 0
73 0 0
73.1 0 0
73.2 0 0
73.3 0 0
73.4 0 0
73.5 0 0
73.6 0 0
73.7 0 0
73.8 0 0
73.9 0 0
74 0 0
74.1 0 0
74.2 0 0
74.3 0 0
74.4 0 0
74.5 0 0
74.6 0 0
74.7 0 0
74.8 0 0
74.9 0 0
75 0 0
75.1 0 0
75.2 0 0
75.3 0 0
75.4 0 0
75.5 0 0
75.6 0 0
75.7 0 0
75.8 0 0
75.9 0 0
76 0 0
76.1 0 0
76.2 0 0
76.3 0 0
76.4 0 0
76.5 0 0
76.6 0 0
76.7 0 0
76.8 0 0
76.9 0 0
77 0 0
77.1 0 0
77.2 0 0
77.3 0 0
77.4 0 0
77.5 0 0
77.6 0 0
77.7 0 0
77.8 0 0
77.9 0 0
78 0 0
78.1 0 0
78.2 0 0
78.3 0 0
78.4 0 0
78.5 0 0
78.6 0 0
78.7 0 0
78.8 0 0
78.9 0 0
79 0 0
79.1 0 0
79.2 0 0
79.3 0 0
79.4 0 0
79.5 0 0
79.6 0 0
79.7 0 0
79.8 0 0
79.9 0 0
80 0 0
80.1 0 0
80.2 0 0
80.3 0 0
80.4 0 0
80.5 0 0
80.6 0 0
80.7 0 0
80.8 0 0
80.9 0 0
81 0 0
81.1 0 0
81.2 0 0
81.3 0 0
81.4 0 0
81.5 0 0
81.6 0 0
81.7 0 0
81.8 0 0
81.9 0 0
82 0 0
82.1 0 0
82.2 0 0
82.3 0 0
82.4 0 0
82.5 0 0
82.6 0 0
82.7 0 0
82.8 0 0
82.9 0 0
83 0 0
83.1 0 0
83.2 0 0
83.3 0 0
83.4 0 0
83.5 0 0
83.6 0 0
83.7 0 0
83.8 0 0
83.9 0 0
84 0 0
84.1 0 0
84.2 0 0
84.3 0 0
84.4 0 0
84.5 0 0
84.6 0 0
84.7 0 0
84.8 0 0
84.9 0 0
85 0 0
85.1 0 0
85.2 0 0
85.3 0 0
85.4 0 0
85.5 0 0
85.6 0 0
85.7 0 0
85.8 0 0
85.9 0 0
86 0 0
86.1 0 0
86.2 0 0
86.3 0 0
86.4 0 0
86.5 0 0
86.6 0 0
86.7 0 0
86.8 0 0
86.9 0 0
87 0 0
87.1 0 0
87.2 0 0
87.3 0 0
87.4 0 0
87.5 0 0
87.6 0 0
87.7 0 0
87.8 0 0
87.9 0 0
88 0 0
88.1 0 0
88.2 0 0
88.3 0 0
88.4 0 0
88.5 0 0
88.6 0 0
88.7 0 0
88.8 0 0
88.9 0 0
89 0 0
89.1 0 0
89.2 0 0
89.3 0 0
89.4 0 0
89.5 0 0
89.6 0 0
89.7 0 0
89.8 0 0
89.9 0 0
90 0 0
90.1 0 0
90.2 0 0
90.3 0 0
90.4 0 0
90.5 0 0
90.6 0 0
90.7 0 0
90.8 0 0
90.9 0 0
91 0 0
91.1 0 0
91.2 0 0
91.3 0 0
91.4 0 0
91.5 0 0
91.6 0 0
91.7 0 0
91.8 0 0
91.9 0 0
92 0 0
92.1 0 0
92.2 0 0
92.3 0 0
92.4 0 0
92.5 0 0
92.6 0 0
92.7 0 0
92.8 0 0
92.9 0 0
93 0 0
93.1 0 0
93.2 0 0
93.3 0 0
93.4 0 0
93.5 0 0
93.6 0 0
93.7 0 0
93.8 0 0
93.9 0 0
94 0 0
94.1 0 0
94.2 0 0
94.3 0 0
94.4 0 0
94.5 0 0
94.6 0 0
94.7 0 0
94.8 0 0
94.9 0 0
95 0 0
95.1 0 0
95.2 0 0
95.3 0 0
95.4 0 0
95.5 0 0
95.6 0 0
95.7 0 0
95.8 0 0
95.9 0 0
96 0 0
96.1 0 0
96.2 0 0
96.3 0 0
96.4 0 0
96.5 0 0
96.6 0 0
96.7 0 0
96.8 0 0
96.9 0 0
97 0 0
97.1 0 0
97.2 0 0
97.3 0 0
97.4 0 0
97.5 0 0
97.6 0 0
97.7 0 0
97.8 0 0
97.9 0 0
98 0 0
98.1 0 0
98.2 0 0
98.3 0 0
98.4 0 0
98.5 0 0
98.6 0 0
98.7 0 0
98.8 0 0
98.9 0 0
99 0 0
99.1 0 0
99.2 0 0
99.3 0 0
99.4 0 0
99.5 0 0
99.6 0 0
99.7 0 0
99.8 0 0
99.9 0 0
100 0 0
100.1 0 0
100.2 0 0
100.3 0 0
100.4 0 0
100.5 0 0
100.6 0 0
100.7 0 0
100.8 0 0
100.9 0 0
101 0 0
101.1 0 0
101.2 0 0
101.3 0 0
101.4 0 0
101.5 0 0
101.6 0 0
101.7 0 0
101.8 0 0
101.9 0 0
102 0 0
102.1 0 0
102.2 0 0
102.3 0 0
102.4 0 0
102.5 0 0
102.6 0 0
102.7 0 0
102.8 0 0
102.9 0 0
103 0 0
103.1 0 0
103.2 0 0
103.3 0 0
103.4 0 0
103.5 0 0
103.6 0 0
103.7 0 0
103.8 0 0
103.9 0 0
104 0 0
104.1 0 0
104.2 0 0
104.3 0 0
104.4 0 0
104.5 0 0
104.6 0 0
104.7 0 0
104.8 0 0
104.9 0 0
105 0 0
105.1 0 0
105.2 0 0
105.3 0 0
105.4 0 0
105.5 0 0
105.6 0 0
105.7 0 0
105.8 0 0
105.9 0 0
106 0 0
106.1 0 0
106.2 0 0
106.3 0 0
106.4 0 0
106.5 0 0
106.6 0 0
106.7 0 0
106.8 0 0
106.9 0 0
107 0 0
107.1 0 0
107.2 0 0
107.3 0 0
107.4 0 0
107.5 0 0
107.6 0 0
107.7 0 0
107.8 0 0
107.9 0 0
108 0 0
108.1 0 0
108.2 0 0
108.3 0 0
108.4 0 0
108.5 0 0
108.6 0 0
108.7 0 0
108.8 0 0
108.9 0 0
109 0 0
109.1 0 0
109.2 0 0
109.3 0 0
109.4 0 0
109.5 0 0
109.6 0 0
109.7 0 0
109.8 0 0
109.9 0 0
110 0 0
110.1 0 0
110.2 0 0
110.3 0 0
110.4 0 0
110.5 0 0
110.6 0 0
110.7 0 0
110.8 0 0
110.9 0 0
111 0 0
111.1 0 0
111.2 0 0
111.3 0 0
111.4 0 0
111.5 0 0
111.6 0 0
111.7 0 0
111.8 0 0
111.9 0 0
112 0 0
[...]
POINT_DATA 83304

SCALARS pressure float 1
LOOKUP_TABLE default
0
0
0
0
0
0
0
0
0
0
0
0
0
0
0
0
0
0
0
0
0
0
0
0
0
0
0
0
0
0
0
0
0
0
0
0
0
0
0
0
0
0
0
0
0
0
0
0
0
0
0
0
0
0
0
0
0
0
0
0
0
0
0
0
0
0
0
0
0
0
0
0
0
0
0
0
0
0
0
0
0
0
0
0
0
0
0
0
0
0
0
0
0
0
0
0
0
0
0
0
0
0
0
0
0
0
0
0
0
0
0
0
0
0
0
0
0
0
0
0
0
0
0
0
0
0
0
0
0
0
0
0
0
0
0
0
0
0
0
0
0
0
0
0
0
0
0
0
0
0
0
0
0
0
0
0
0
0
0
0
0
0
0
0
0
0
0
0
0
0
0
0
0
0
0
0
0
0
0
0
0
0
0
0
0
0
0
0
0
0
0
0
0
0
0
0
0
0
0
0
0
0
0
0
0
0
0
0
0
0
0
0
0
0
0
0
0
0
0
0
0
0
0
0
0
0
0
0
0
0
0
0
0
0
0
0
0
0
0
0
0
0
0
0
0
0
0
0
0
0
0
0
0
0
0
0
0
0
0
0
0
0
0
0
0
0
0
0
0
0
0
0
0
0
0
0
0
0
0
0
0
0
0
0
0
0
0
0
0
0
0
0
0
0
0
0
0
0
0
0
0
0
0
0
0
0
0
0
0
0
0
0
0
0
0
0
0
0
0
0
0
0
0
0
0
0
0
0
0
0
0
0
0
0
0
0
0
0
0
0
0
0
0
0
0
0
0
0
0
0
0
0
0
0
0
0
0
0
0
0
0
0
0
0
0
0
0
0
0
0
0
0
0
0
0
0
0
0
0
0
0
0
0
0
0
0
0
0
0
0
0
0
0
0
0
0
0
0
0
0
0
0
0
0
0
0
0
0
0
0
0
0
0
0
0
0
0
0
0
0
0
0
0
0
0
0
0
0
0
0
0
0
0
0
0
0
0
0
0
0
0
0
0
0
0
0
0
0
0
0
0
0
0
0
0
0
0
0
0
0
0
0
0
0
0
0
0
0
0
0
0
0
0
0
0
0
0
0
0
0
0
0
0
0
0
0
0
0
0
0
0
0
0
0
0
0
0
0
0
0
0
0
0
0
0
0
0
0
0
0
0
0
0
0
0
0
0
0
0
0
0
0
0
0
0
0
0
0
0
0
0
0
0
0
0
0
0
0
0
0
0
0
0
0
0
0
0
0
0
0
0
0
0
0
0
0
0
0
0
0
0
0
0
0
0
0
0
0
0
0
0
0
0
0
0
0
0
0
0
0
0
0
0
0
0
0
0
0
0
0
0
0
0
0
0
0
0
0
0
0
0
0
0
0
0
0
0
0
0
0
0
0
0
0
0
0
0
0
0
0
0
0
0
0
0
0
0
0
0
0
0
0
0
0
0
0
0
0
0
0
0
0
0
0
0
0
0
0
0
0
0
0
0
0
0
0
0
0
0
0
0
0
0
0
0
0
0
0
0
0
0
0
0
0
0
0
0
0
0
0
0
0
0
0
0
0
0
0
0
0
0
0
0
0
0
0
0
0
0
0
0
0
0
0
0
0
0
0
0
0
0
0
0
0
0
0
0
0
0
0
0
0
0
0
0
0
0
0
0
0
0
0
0
0
0
0
0
0
0
0
0
0
0
0
0
0
0
0
0
0
0
0
0
0
0
0
0
0
0
0
0
0
0
0
0
0
0
0
0
0
0
0
0
0
0
0
0
0
0
0
0
0
0
0
0
0
0
0
0
0
0
0
0
0
0
0
0
0
0
0
0
0
0
0
0
0
0
0
0
0
0
0
0
0
0
0
0
0
0
0
0
0
0
0
0
0
0
0
0
0
0
0
0
0
0
0
0
0
0
0
0
0
0
0
0
0
0
0
0
0
0
0
0
0
0
0
0
0
0
0
0
0
0
0
0
0
0
0
0
0
0
0
0
0
0
0
0
0
0
0
0
0
0
0
0
0
0
0
0
0
0
0
0
0
0
0
0
0
0
0
0
0
0
0
0
0
0
0
0
0
0
0
0
0
0
0
0
0
0
0
0
0
0
0
0
0
0
0
0
0
0
0
0
0
0
0
0
0
0
0
0
0
0
0
0
0
0
0
0
0
0
0
0
0
0
0
0
0
0
0
0
0
0
0
0
0
0
0
0
0
0
0
0
0
0
0
0
0
0
0
0
0
0
0
0
0
0
0
0
0
0
0
0
0
0
0
0
0
0
0
0
0
0
0
0
0
0
0
0
0
0
0
0
0
0
0
0
0
0
0
0
0
0
0
0
0
0
0
0
0
0
0
0
0
0
0
0
0
0
0
0
0
0
0
0
0
0
0
0
0
0
0
0
0
0
0
0
0
0
0
0
0
0
0
0
0
0
0
0
0
0
0
0
0
0
0
0
0
0
0
0
0
0
0
0
0
0
0
0
0
0
0
0
0
0
0
0
0
0
0
0
0
0
0
0
0
0
0
0
0
0
0
0
0
0
0
0
0
0
0
0
0
0
0
0
0
0
0
0
0
0
0
0
0
0
0
0
0
0
0
0
0
0
0
0
0
0
0
0
0
0
0
0
0
0
0
0
0
0
0
0
0
0
0
0
0
0
0
0
0
0
0
0
0
0
0
0
0
0
0
0
0
0
0
0
0
0
0
0
0
0
0
0
0
0
0
0
0
0
0
0
0
0
0
0
0
0
0
0
0
0
0
0
0
0
0
0
0
0
0
0
0
0
0
0
0
0
0
0
0
0
0
0
0
0
0
0
0
0
0
0
0
0
0
0
0
0
0
0
0
0
0
0
0
0
0
0
0
0
0
0
0
0
0
0
0
0
0
0
0
0
0
0
0
0
0
0
0
0
0
0
0
0
0
0
0
0
0
0
0
0
0
0
0
0
0
0
0
0
0
0
0
0
0
0
0
0
0
0
0
0
0
0
0
0
0
0
0
0
0
0
0
0
0
0
0
0
0
0
0
0
0
0
0
0
0
0
0
0
0
0
0
0
0
0
0
0
0
0
0
0
0
0
0
0
0
0
0
0
0
0
0
0
0
0
0
0
0
0
0
0
0
0
0
0
0
0
0
0
0
0
0
0
0
0
0
0
0
0
0
0
0
0
0
0
0
0
0
0
0
0
0
0
0
0
0
0
0
0
0
0
0
0
0
0
0
0
0
0
0
0
0
0
0
0
0
0
0
0
0
0
0
0
0
0
0
0
0
0
0
0
0
0
0
0
0
0
0
0
0
0
0
0
0
0
0
0
0
0
0
0
0
0
0
0
0
0
0
0
0
0
0
0
0
0
0
0
0
0
0
0
0
0
0
0
0
0
0
0
0
0
0
0
0
0
0
0
0
0
0
0
0
0
0
0
0
0
0
0
0
0
0
0
0
0
0
0
0
0
0
0
0
0
0
0
0
0
0
0
0
0
0
0
0
0
0
0
0
0
0
0
0
0
0
0
0
0
0
0
0
0
0
0
0
0
0
0
0
0
0
0
0
0
0
0
0
0
0
0
0
0
0
0
0
0
0
0
0
0
0
0
0
0
0
0
0
0
0
0
0
0
0
0
0
0
0
0
0
0
0
0
0
0
0.0776415
0.052903
0.0436505
0.0357426
0.03048
0.0271088
0.0248019
0.023116
0.0218008
0.0207277
0.0198235
0.0190436
0.0183596
0.0177519
0.0172066
0.0167134
0.0162643
0.0158532
0.0154749
0.0151254
0.0148012
0.0144993
0.0142174
0.0139533
0.0137051
0.0134714
0.0132506
0.0130416
0.0128434
0.0126549
0.0124753
0.0123039
0.0121401
0.0119833
0.0118328
0.0116884
0.0115494
0.0114156
0.0112866
0.0111621
0.0110418
0.0109254
0.0108128
0.0107037
0.0105979
0.0104952
0.0103955
0.0102987
0.0102045
0.0101129
0.0100238
0.00993703
0.00985251
0.00977017
0.0096899
0.00961165
0.00953534
0.00946089
0.00938827
0.00931739
0.00924823
0.00918071
0.00911481
0.00905047
0.00898765
0.00892633
0.00886645
0.00880799
0.00875091
0.00869518
0.00864078
0.00858767
0.00853583
0.00848522
0.00843584
0.00838764
0.00834061
0.00829472
0.00824995
0.00820629
0.0081637
0.00812216
0.00808166
0.00804218
0.00800369
0.00796618
0.00792962
0.007894
0.00785929
0.00782549
0.00779256
0.00776049
0.00772927
0.00769888
0.00766929
0.00764049
0.00761246
0.00758519
0.00755866
0.00753285
0.00750774
0.00748333
0.00745958
0.00743649
0.00741404
0.00739222
0.007371
0.00735038
0.00733034
0.00731086
0.00729192
0.00727352
0.00725564
0.00723827
0.00722139
0.00720499
0.00718906
0.00717358
0.00715855
0.00714396
0.00712981
0.00711607
0.00710275
0.00708983
0.0070773
0.00706515
0.00705336
0.00704193
0.00703083
0.00702005
0.00700957
0.00699938
0.00698947
0.00697982
0.00697044
0.00696134
0.00695251
0.00694398
0.00693577
0.00692789
0.00692036
0.00691317
0.00690632
0.00689975
0.0068934
0.00688719
0.00688098
0.00687466
0.00686809
0.00686119
0.00685391
0.00684632
0.00683864
0.00683125
0.00682474
0.00681993
0.00681783
0.00681963
0.00682654
0.0068397
0.00685997
0.00688764
0.00692216
0.00696181
0.00700336
0.00704182
0.00707019
0.00707939
0.00705838
0.00699452
0.00687417
0.00668377
0.00641125
0.00604787
0.00559056
0.0050446
0.00442657
0.00376719
0.00311369
0.00253102
0.00210116
0.00191986
0.00209059
0.00271583
0.00388709
0.00567453
0.00811809
0.0112235
0.0149603
0.0192624
0.0240345
0.029162
0.0345136
0.0399421
0.0452997
0.0504518
0.0552646
0.0595861
0.0632713
0.0662365
0.0684803
0.070042
0.0709489
0.0712031
0.0708033
0.0697708
0.0681552
0.0660268
0.0634664
0.0605573
0.0573819
0.054019
0.0505427
0.0470206
0.0435125
0.0400695
0.0367335
0.0335373
0.030505
0.027653
0.0249909
0.0225225
0.0202474
0.0181612
0.0162569
0.0145259
0.0129578
0.011542
0.0102673
0.00912233
0.0080963
0.00717864
0.00635936
0.00562905
0.00497896
0.00440102
0.00388779
0.0034325
0.00302897
0.00267161
0.00235539
0.00207574
0.00182861
0.00161032
0.00141762
0.00124759
0.00109762
0.000965409
0.000848893
0.000746247
0.00065585
0.000576267
0.000506223
0.000444594
0.000390384
0.000342711
0.000300798
0.000263958
0.000231584
0.000203142
0.000178158
0.000156218
0.000136955
0.000120045
0.000105204
9.21817e-05
8.07569e-05
7.07357e-05
6.19473e-05
5.42414e-05
4.74861e-05
4.1565e-05
3.63761e-05
3.18297e-05
2.78469e-05
2.43584e-05
2.13034e-05
1.86285e-05
1.62869e-05
1.42373e-05
1.24436e-05
1.08741e-05
9.50113e-06
8.30015e-06
7.24983e-06
6.33143e-06
5.52849e-06
4.82663e-06
4.21322e-06
3.67719e-06
3.20886e-06
2.79975e-06
2.44242e-06
2.13037e-06
1.85791e-06
1.62004e-06
1.41242e-06
1.23122e-06
1.0731e-06
9.35151e-07
8.14813e-07
7.09855e-07
6.18325e-07
5.38517e-07
4.68942e-07
4.08295e-07
3.5544e-07
3.09382e-07
2.69253e-07
2.34295e-07
2.03846e-07
1.77329e-07
1.54239e-07
1.34137e-07
1.16638e-07
1.01407e-07
8.81531e-08
7.66204e-08
6.65872e-08
5.78596e-08
5.0269e-08
4.36681e-08
3.79287e-08
3.29391e-08
2.8602e-08
2.48325e-08
2.15568e-08
1.87107e-08
1.62381e-08
1.40904e-08
1.22251e-08
1.06053e-08
9.19882e-09
7.97784e-09
6.91799e-09
5.99815e-09
5.19991e-09
4.50731e-09
3.90644e-09
3.38523e-09
2.93317e-09
2.54115e-09
2.20123e-09
1.90653e-09
1.65107e-09
1.42966e-09
1.23777e-09
1.07151e-09
9.27452e-10
8.02662e-10
6.94573e-10
6.00962e-10
5.19902e-10
4.49718e-10
3.88958e-10
3.36365e-10
2.90846e-10
2.51456e-10
2.17372e-10
1.87885e-10
1.62377e-10
1.40314e-10
1.21234e-10
1.04736e-10
9.0471e-11
7.81393e-11
6.748e-11
5.82675e-11
5.03064e-11
4.34277e-11
3.74848e-11
3.23511e-11
2.79171e-11
2.40878e-11
2.07811e-11
1.79262e-11
1.54615e-11
1.33341e-11
1.14979e-11
9.91338e-12
8.54615e-12
7.36656e-12
6.349e-12
5.47132e-12
4.71439e-12
4.06166e-12
3.49888e-12
3.01369e-12
2.59547e-12
2.235e-12
1.92436e-12
1.65669e-12
1.42607e-12
1.2274e-12
1.05627e-12
9.08891e-13
7.81976e-13
6.72698e-13
5.78619e-13
4.97634e-13
4.27929e-13
3.67942e-13
3.16324e-13
2.71912e-13
2.33706e-13
2.00843e-13
1.72579e-13
1.48273e-13
1.27374e-13
1.09407e-13
9.39614e-14
8.06862e-14
6.92775e-14
5.94741e-14
5.10514e-14
4.38157e-14
3.76007e-14
3.2263e-14
2.76794e-14
2.37439e-14
2.03653e-14
1.74653e-14
1.49762e-14
1.28402e-14
1.10074e-14
9.43495e-15
8.08603e-15
6.92896e-15
5.93654e-15
5.08537e-15
4.35537e-15
3.72931e-15
3.19244e-15
2.73216e-15
2.33771e-15
1.99993e-15
1.71095e-15
1.46403e-15
1.25331e-15
1.07366e-15
9.20599e-16
7.90159e-16
6.78864e-16
5.8364e-16
5.01743e-16
4.30694e-16
3.68247e-16
3.12433e-16
2.61707e-16
2.15163e-16
1.72756e-16
1.35419e-16
1.0493e-16
8.34657e-17
7.28505e-17
7.36377e-17
8.42953e-17
1.00809e-16
1.16973e-16
1.25477e-16
1.19661e-16
9.55317e-17
5.34735e-17
-9.50341e-19
-5.75527e-17
-1.0352e-16
-1.26516e-16
-1.18152e-16
-7.6868e-17
-9.29738e-18
7.04629e-17
1.43723e-16
1.91631e-16
2.00072e-16
1.63724e-16
8.8088e-17
-1.12147e-17
-1.11837e-16
-1.90038e-16
-2.26607e-16
-2.1183e-16
-1.48164e-16
-4.98635e-17
6.03881e-17
1.56993e-16
2.1769e-16
2.28929e-16
1.89027e-16
1.08327e-16
6.40576e-18
-9.28911e-17
-1.67271e-16
-2.01197e-16
-1.8921e-16
-1.36662e-16
-5.78241e-17
2.8014e-17
1.01356e-16
1.47014e-16
1.57253e-16
1.32934e-16
8.25497e-17
1.95827e-17
-4.10398e-17
-8.64605e-17
-1.08561e-16
-1.05256e-16
-8.02581e-17
-4.15635e-17
8.54106e-19
3.74998e-17
6.1387e-17
6.92324e-17
6.1659e-17
4.2502e-17
1.75023e-17
-7.2251e-18
-2.65718e-17
-3.73788e-17
-3.88022e-17
-3.21134e-17
-2.0072e-17
-6.08292e-18
6.64027e-18
1.57224e-17
1.99771e-17
1.94381e-17
1.51233e-17
8.63387e-18
1.70686e-18
-4.17426e-18
-8.03744e-18
-9.52022e-18
-8.81953e-18
-6.53451e-18
-3.4582e-18
-3.73089e-19
2.10687e-18
3.62483e-18
4.09661e-18
3.66653e-18
2.62608e-18
1.32104e-18
6.89644e-20
-8.98127e-19
-1.46006e-18
-1.60568e-18
-1.40862e-18
-9.91762e-19
-4.90547e-19
-2.29119e-20
3.29673e-19
5.29022e-19
5.76627e-19
5.03052e-19
3.54302e-19
1.78717e-19
1.6884e-20
-1.04203e-19
-1.72719e-19
-1.90162e-19
-1.67389e-19
-1.19916e-19
-6.36134e-20
-1.15437e-20
2.77527e-20
5.0606e-20
5.75158e-20
5.18456e-20
3.8343e-20
2.18278e-20
6.25367e-21
-5.78369e-21
-1.31308e-20
-1.58584e-20
-1.48761e-20
-1.1504e-20
-7.09816e-21
-2.78534e-21
6.76875e-22
2.92573e-21
3.93652e-21
3.91995e-21
3.2079e-21
2.15296e-21
1.0565e-21
1.29555e-22
-5.1663e-22
-8.58377e-22
-9.35077e-22
-8.21071e-22
-6.00401e-22
-3.48203e-22
-1.19994e-22
5.18132e-23
1.55953e-22
1.97138e-22
1.8973e-22
1.51817e-22
1.00659e-22
4.98679e-23
8.23192e-24
-2.01711e-23
-3.50448e-23
-3.85894e-23
-3.42217e-23
-2.5532e-23
-1.55827e-23
-6.55416e-24
3.23202e-25
4.64225e-24
6.59117e-24
6.7026e-24
5.63331e-24
4.00299e-24
2.29919e-24
8.40951e-25
-2.14199e-25
-8.3731e-25
-1.08477e-24
-1.05634e-24
-8.61388e-25
-5.96285e-25
-3.32671e-25
-1.14517e-25
3.88444e-26
1.26565e-25
1.59288e-25
1.52867e-25
1.2362e-25
8.53576e-26
4.80053e-26
1.7434e-26
-3.94088e-27
-1.62052e-26
-2.09395e-26
-2.03572e-26
-1.66778e-26
-1.17493e-26
-6.88614e-27
-2.86247e-27
-3.1228e-31
1.70145e-27
2.43568e-27
2.47665e-27
2.101e-27
1.54073e-27
9.62883e-28
4.68575e-28
1.03457e-28
-1.2688e-28
-2.41196e-28
-2.69372e-28
-2.42844e-28
-1.88786e-28
-1.27438e-28
-7.17042e-29
-2.81378e-29
1.44565e-30
1.82553e-29
2.50434e-29
2.50006e-29
2.10512e-29
1.54937e-29
9.89726e-30
5.16259e-30
1.6646e-30
-5.80572e-31
-1.76278e-30
-2.15806e-30
-2.04692e-30
-1.66759e-30
-1.1965e-30
-7.47269e-31
-3.80184e-31
-1.16127e-31
4.93765e-32
1.34243e-31
1.61052e-31
1.51419e-31
1.23021e-31
8.85779e-32
5.607e-32
2.96088e-32
1.05289e-32
-1.57266e-33
-7.99212e-33
-1.03147e-32
-1.00384e-32
-8.38103e-33
-6.21965e-33
-4.10966e-33
-2.34587e-33
-1.03599e-33
-1.69575e-34
3.26244e-34
5.47024e-34
5.85977e-34
5.20854e-34
4.0924e-34
2.89127e-34
1.82221e-34
9.82014e-35
3.88453e-35
1.43127e-36
-1.87562e-35
-2.67891e-35
-2.71698e-35
-2.34251e-35
-1.8037e-35
-1.25643e-35
-7.84474e-36
-4.21081e-36
-1.6788e-36
-9.59655e-38
7.56943e-37
1.10179e-36
1.1292e-36
9.85406e-37
7.71952e-37
5.5216e-37
3.60123e-37
2.09708e-37
1.02216e-37
3.22099e-38
-8.47227e-39
-2.82343e-38
-3.44004e-38
-3.26865e-38
-2.716e-38
-2.04566e-38
-1.40985e-38
-8.81818e-39
-4.83865e-39
-2.08983e-39
-3.6161e-40
5.97854e-40
1.026e-39
1.11927e-39
1.02537e-39
8.46316e-40
6.46421e-40
4.61747e-40
3.08877e-40
1.92125e-40
1.08928e-40
5.35491e-41
1.93979e-41
3.35419e-43
-8.72785e-42
-1.16698e-41
-1.12391e-41
-9.24954e-42
-6.80433e-42
-4.50459e-42
-2.62152e-42
-1.2269e-42
-2.84907e-43
2.87818e-43
5.86047e-43
6.96684e-43
6.90405e-43
6.19839e-43
5.21207e-43
4.17421e-43
3.21485e-43
2.39555e-43
1.73417e-43
1.22326e-43
8.42813e-44
5.68489e-44
3.76361e-44
2.45384e-44
1.58325e-44
1.01807e-44
6.589e-45
4.34624e-45
2.96139e-45
2.10664e-45
1.57053e-45
1.22136e-45
9.80159e-46
8.01503e-46
6.60398e-46
5.43732e-46
4.44896e-46
3.60584e-46
2.88981e-46
2.28831e-46
1.79005e-46
1.38357e-46
1.05701e-46
7.98546e-47
5.9687e-47
4.41606e-47
3.23579e-47
2.34916e-47
1.69054e-47
1.20639e-47
8.54015e-48
5.9994e-48
4.18361e-48
2.89683e-48
1.99224e-48
1.36118e-48
9.24146e-49
6.23611e-49
4.1833e-49
2.79021e-49
1.85072e-49
1.22095e-49
8.01268e-50
5.23163e-50
3.39886e-50
2.19745e-50
1.41399e-50
9.05647e-51
5.77435e-51
3.6654e-51
2.3166e-51
1.45791e-51
9.1369e-52
5.70276e-52
3.54506e-52
2.19505e-52
1.35387e-52
8.31855e-53
5.09196e-53
3.10538e-53
1.88694e-53
1.14246e-53
6.89267e-54
4.14396e-54
2.48283e-54
1.48252e-54
8.82261e-55
5.23304e-55
3.09378e-55
1.82314e-55
1.07094e-55
6.27096e-56
3.66056e-56
2.1302e-56
1.23584e-56
7.14816e-57
4.12216e-57
2.37011e-57
1.35874e-57
7.76683e-58
4.42691e-58
2.51605e-58
1.42597e-58
8.05907e-59
4.54207e-59
2.55287e-59
1.43093e-59
7.99893e-60
4.45944e-60
2.47955e-60
1.37505e-60
7.60548e-61
4.19571e-61
2.30867e-61
1.26709e-61
6.93662e-62
3.78784e-62
2.06323e-62
1.12104e-62
6.07605e-63
3.28515e-63
1.77186e-63
9.5335e-64
5.11716e-64
2.7401e-64
1.46377e-64
7.80102e-65
4.14774e-65
2.20018e-65
1.16438e-65
6.148e-66
3.23874e-66
1.70227e-66
8.92679e-67
4.67073e-67
2.43837e-67
1.27013e-67
6.60135e-68
3.42342e-68
1.77148e-68
9.14666e-69
4.71245e-69
2.42267e-69
1.24282e-69
6.36199e-70
3.24978e-70
1.65652e-70
8.42605e-71
4.27702e-71
2.16647e-71
1.09512e-71
5.52423e-72
2.78093e-72
1.39707e-72
7.00423e-73
3.50447e-73
1.74987e-73
8.71998e-74
4.33666e-74
2.15243e-74
1.0662e-74
5.27099e-75
2.60069e-75
1.28066e-75
6.29406e-76
3.08733e-76
1.51145e-76
7.38528e-77
3.60168e-77
1.75312e-77
8.51707e-78
4.12994e-78
1.99883e-78
9.65582e-79
4.65572e-79
2.24064e-79
1.07634e-79
5.1608e-80
2.46992e-80
1.17991e-80
5.62621e-81
2.67786e-81
1.27224e-81
6.03337e-82
2.85605e-82
1.34954e-82
6.36541e-83
2.99701e-83
1.40856e-83
6.60826e-84
3.09478e-84
1.44678e-84
6.75169e-85
3.14528e-85
1.46266e-85
6.79004e-86
3.14662e-86
1.45567e-86
6.72251e-87
3.09922e-87
1.42635e-87
6.55324e-88
3.0057e-88
1.37624e-88
6.29083e-89
2.87069e-89
1.30777e-89
5.94769e-90
2.70045e-90
1.22405e-90
5.53906e-91
2.50237e-91
1.12862e-91
5.08193e-92
2.28451e-92
1.02528e-92
4.59392e-93
2.05501e-93
9.17775e-94
4.09217e-94
1.82166e-94
8.09619e-95
3.59248e-95
1.59151e-95
7.0393e-96
3.10853e-96
1.37053e-96
6.03301e-97
2.65149e-97
1.16348e-97
5.09734e-98
2.22969e-98
9.73791e-99
4.24626e-99
1.84872e-99
8.03634e-100
3.48797e-100
1.51152e-100
6.5401e-101
2.82544e-101
1.21877e-101
5.24914e-102
2.25732e-102
9.69248e-103
4.15543e-103
1.77885e-103
7.60331e-104
3.24497e-104
1.38282e-104
5.88392e-105
2.49986e-105
1.06051e-105
4.4923e-106
1.90009e-106
8.02479e-107
3.38416e-107
1.42503e-107
5.99181e-108
2.51566e-108
1.05465e-108
4.41498e-109
1.8455e-109
7.70311e-110
3.2106e-110
1.33621e-110
5.55309e-111
2.30445e-111
9.54932e-112
3.95142e-112
1.63271e-112
6.73667e-113
2.77561e-113
1.14197e-113
4.69168e-114
1.92481e-114
7.88553e-115
3.22596e-115
1.31788e-115
5.37625e-116
2.19015e-116
8.90959e-117
3.61938e-117
1.46826e-117
5.94797e-118
2.40619e-118
9.72046e-119
3.92141e-119
1.57979e-119
6.35557e-120
2.55336e-120
1.02441e-120
4.10431e-121
1.64214e-121
6.5613e-122
2.61804e-122
1.04321e-122
4.15123e-123
1.64966e-123
6.54672e-124
2.59458e-124
1.02689e-124
4.05882e-125
1.60211e-125
6.3154e-126
2.48617e-126
9.77417e-127
3.83752e-127
1.50468e-127
5.892e-128
2.30412e-128
8.99857e-129
3.50969e-129
1.36708e-129
5.31797e-130
2.06599e-130
8.01572e-131
3.10591e-131
1.2019e-131
4.64497e-132
1.7928e-132
6.91065e-133
2.66037e-133
1.02283e-133
3.92741e-134
1.50608e-134
5.76808e-135
2.20626e-135
8.42803e-136
3.21543e-136
1.22518e-136
4.66234e-137
1.77197e-137
6.72602e-138
2.54982e-138
9.65405e-139
3.65058e-139
1.37869e-139
5.20023e-140
1.959e-140
7.37055e-141
2.76963e-141
1.03944e-141
3.89616e-142
1.45859e-142
5.45364e-143
2.03658e-143
7.59588e-144
2.82955e-144
1.05273e-144
3.91187e-145
1.45183e-145
5.3816e-146
1.99239e-146
7.36725e-147
2.72085e-147
1.00363e-147
3.69753e-148
1.36057e-148
5.00038e-149
1.83551e-149
6.72954e-150
2.46427e-150
9.01291e-151
3.29245e-151
1.20129e-151
4.37782e-152
1.59347e-152
5.79309e-153
2.10357e-153
7.62929e-154
2.76372e-154
9.99966e-155
3.61377e-155
1.30443e-155
4.70289e-156
1.69354e-156
6.09133e-157
2.18835e-157
7.85253e-158
2.81444e-158
1.00754e-158
3.60267e-159
1.2867e-159
4.59011e-160
1.63554e-160
5.82094e-161
2.06928e-161
7.34752e-162
2.6059e-162
9.23148e-163
3.2665e-163
1.15449e-163
4.07568e-164
1.43717e-164
5.06192e-165
1.78084e-165
6.25799e-166
2.19659e-166
7.70131e-167
2.69703e-167
9.43431e-168
3.29641e-168
1.15048e-168
4.0107e-169
1.3966e-169
4.8577e-170
1.68771e-170
5.85701e-171
2.03032e-171
7.03012e-172
2.4315e-172
8.40033e-173
2.89889e-173
9.99268e-174
3.44069e-174
1.18338e-174
4.06556e-175
1.39519e-175
4.78256e-176
1.6376e-176
5.60108e-177
1.91362e-177
6.53069e-178
2.2263e-178
7.58104e-179
2.57867e-179
8.76163e-180
2.9737e-180
1.00817e-180
3.41424e-181
1.15499e-181
3.90292e-182
1.31743e-182
4.44213e-183
1.49617e-183
5.03387e-184
1.69181e-184
5.67974e-185
1.90474e-185
6.38079e-186
2.13523e-186
7.13749e-187
2.38331e-187
7.94963e-188
2.64879e-188
8.81623e-189
2.93125e-189
9.73551e-190
3.22998e-190
1.07048e-190
3.54401e-191
1.17206e-191
3.87204e-192
1.27783e-192
4.21252e-193
1.38725e-193
4.56358e-194
1.49968e-194
4.92306e-195
1.61441e-195
5.28852e-196
1.73061e-196
5.6573e-197
1.84741e-197
6.02647e-198
1.96385e-198
6.39295e-199
2.07894e-199
6.75349e-200
2.19161e-200
7.10475e-201
2.30082e-201
7.44332e-202
2.40548e-202
7.76581e-203
2.50452e-203
8.06888e-204
2.5969e-204
8.34931e-205
2.68163e-205
8.60405e-206
2.75779e-206
8.8303e-207
2.82452e-207
9.0255e-208
2.88107e-208
9.18746e-209
2.92681e-209
9.31433e-210
2.96121e-210
9.4047e-211
2.98388e-211
9.45755e-212
2.99459e-212
9.47234e-213
2.99323e-213
9.44899e-214
2.97985e-214
9.38785e-215
2.95463e-215
9.28976e-216
2.9179e-216
9.15596e-217
2.87014e-217
8.98812e-218
2.81191e-218
8.78826e-219
2.74393e-219
8.55875e-220
2.66697e-220
8.30224e-221
2.58192e-221
8.02161e-222
2.48972e-222
7.71992e-223
2.39137e-223
7.40037e-224
2.28788e-224
7.06621e-225
2.18029e-225
6.72074e-226
2.06964e-226
6.36719e-227
1.95694e-227
6.00873e-228
1.84317e-228
5.64841e-229
1.72928e-229
5.2891e-230
1.61613e-230
4.93347e-231
1.50455e-231
4.58398e-232
1.39527e-232
4.24284e-233
1.28895e-233
3.91198e-234
1.18615e-234
3.59309e-235
1.08737e-235
3.28755e-236
9.93005e-237
2.99651e-237
9.03367e-238
2.72082e-238
8.18691e-239
2.46109e-239
7.39133e-240
2.21771e-240
6.64776e-241
1.99083e-241
5.95637e-242
1.7804e-242
5.31674e-243
1.58622e-243
4.72791e-244
1.40789e-244
4.1885e-245
1.24492e-245
3.6967e-246
1.09668e-246
3.25043e-247
9.62487e-248
2.84736e-248
8.41559e-249
2.48497e-249
7.33085e-250
2.16064e-250
6.36219e-251
1.87166e-251
5.50105e-252
1.61533e-252
4.73886e-253
1.38894e-253
4.06719e-254
1.18988e-254
3.47786e-255
1.01559e-255
2.96298e-256
8.6365e-257
2.51506e-257
7.31745e-258
2.12703e-258
6.17716e-259
1.79229e-259
5.19552e-260
1.50472e-260
4.35395e-261
1.25868e-261
3.63542e-262
1.04905e-262
3.02445e-263
8.71167e-264
2.50704e-264
7.20824e-265
2.07064e-265
5.94273e-266
1.70402e-266
4.88173e-267
1.39727e-267
3.99572e-268
1.14162e-268
3.25878e-269
9.29394e-270
2.64823e-270
7.53913e-271
2.14436e-271
6.09379e-272
1.73017e-272
4.90798e-273
1.39101e-273
3.93884e-274
1.11435e-274
3.14984e-275
8.89548e-276
2.50995e-276
7.07581e-277
1.99298e-277
5.60847e-278
1.57689e-278
4.42973e-279
1.24328e-279
3.4864e-280
9.76796e-281
2.73431e-281
7.64735e-282
2.13694e-282
5.96613e-283
1.66423e-283
4.63822e-284
1.29155e-284
3.59328e-285
9.98832e-286
2.77405e-286
7.69765e-287
2.13414e-287
5.91169e-288
1.63614e-288