# vtk DataFile Version 2.0
FlowField
ASCII
DATASET STRUCTURED_GRID
DIMENSIONS 1602 1 52
POINTS 83304 float
0 0 0
0.1 0 0
0.2 0 0
0.3 0 0
0.4 0 0
0.5 0 0
0.6 0 0
0.7 0 0
0.8 0 0
0.9 0 0
1 0 0
1.1 0 0
1.2 0 0
1.3 0 0
1.4 0 0
1.5 0 0
1.6 0 0
1.7 0 0
1.8 0 0
1.9 0 0
2 0 0
2.1 0 0
2.2 0 0
2.3 0 0
2.4 0 0
2.5 0 0
2.6 0 0
2.7 0 0
2.8 0 0
2.9 0 0
3 0 0
3.1 0 0
3.2 0 0
3.3 0 0
3.4 0 0
3.5 0 0
3.6 0 0
3.7 0 0
3.8 0 0
3.9 0 0
4 0 0
4.1 0 0
4.2 0 0
4.3 0 0
4.4 0 0
4.5 0 0
4.6 0 0
4.7 0 0
4.8 0 0
4.9 0 0
5 0 0
5.1 0 0
5.2 0 0
5.3 0 0
5.4 0 0
5.5 0 0
5.6 0 0
5.7 0 0
5.8 0 0
5.9 0 0
6 0 0
6.1 0 0
6.2 0 0
6.3 0 0
6.4 0 0
6.5 0 0
6.6 0 0
6.7 0 0
6.8 0 0
6.9 0 0
7 0 0
7.1 0 0
7.2 0 0
7.3 0 0
7.4 0 0
7.5 0 0
7.6 0 0
7.7 0 0
7.8 0 0
7.9 0 0
8 0 0
8.1 0 0
8.2 0 0
8.3 0 0
8.4 0 0
8.5 0 0
8.6 0 0
8.7 0 0
8.8 0 0
8.9 0 0
9 0 0
9.1 0 0
9.2 0 0
9.3 0 0
9.4 0 0
9.5 0 0
9.6 0 0
9.7 0 0
9.8 0 0
9.9 0 0
10 0 0
10.1 0 0
10.2 0 0
10.3 0 0
10.4 0 0
10.5 0 0
10.6 0 0
10.7 0 0
10.8 0 0
10.9 0 0
11 0 0
11.1 0 0
11.2 0 0
11.3 0 0
11.4 0 0
11.5 0 0
11.6 0 0
11.7 0 0
11.8 0 0
11.9 0 0
12 0 0
12.1 0 0
12.2 0 0
12.3 0 0
12.4 0 0
12.5 0 0
12.6 0 0
12.7 0 0
12.8 0 0
12.9 0 0
13 0 0
13.1 0 0
13.2 0 0
13.3 0 0
13.4 0 0
13.5 0 0
13.6 0 0
13.7 0 0
13.8 0 0
13.9 0 0
14 0 0
14.1 0 0
14.2 0 0
14.3 0 0
14.4 0 0
14.5 0 0
14.6 0 0
14.7 0 0
14.8 0 0
14.9 0 0
15 0 0
15.1 0 0
15.2 0 0
15.3 0 0
15.4 0 0
15.5 0 0
15.6 0 0
15.7 0 0
15.8 0 0
15.9 0 0
16 0 0
16.1 0 0
16.2 0 0
16.3 0 0
16.4 0 0
16.5 0 0
16.6 0 0
16.7 0 0
16.8 0 0
16.9 0 0
17 0 0
17.1 0 0
17.2 0 0
17.3 0 0
17.4 0 0
17.5 0 0
17.6 0 0
17.7 0 0
17.8 0 0
17.9 0 0
18 0 0
18.1 0 0
18.2 0 0
18.3 0 0
18.4 0 0
18.5 0 0
18.6 0 0
18.7 0 0
18.8 0 0
18.9 0 0
19 0 0
19.1 0 0
19.2 0 0
19.3 0 0
19.4 0 0
19.5 0 0
19.6 0 0
19.7 0 0
19.8 0 0
19.9 0 0
20 0 0
20.1 0 0
20.2 0 0
20.3 0 0
20.4 0 0
20.5 0 0
20.6 0 0
20.7 0 0
20.8 0 0
20.9 0 0
21 0 0
21.1 0 0
21.2 0 0
21.3 0 0
21.4 0 0
21.5 0 0
21.6 0 0
21.7 0 0
21.8 0 0
21.9 0 0
22 0 0
22.1 0 0
22.2 0 0
22.3 0 0
22.4 0 0
22.5 0 0
22.6 0 0
22.7 0 0
22.8 0 0
22.9 0 0
23 0 0
23.1 0 0
23.2 0 0
23.3 0 0
23.4 0 0
23.5 0 0
23.6 0 0
23.7 0 0
23.8 0 0
23.9 0 0
24 0 0
24.1 0 0
24.2 0 0
24.3 0 0
24.4 0 0
24.5 0 0
24.6 0 0
24.7 0 0
24.8 0 0
24.9 0 0
25 0 0
25.1 0 0
25.2 0 0
25.3 0 0
25.4 0 0
25.5 0 0
25.6 0 0
25.7 0 0
25.8 0 0
25.9 0 0
26 0 0
26.1 0 0
26.2 0 0
26.3 0 0
26.4 0 0
26.5 0 0
26.6 0 0
26.7 0 0
26.8 0 0
26.9 0 0
27 0 0
27.1 0 0
27.2 0 0
27.3 0 0
27.4 0 0
27.5 0 0
27.6 0 0
27.7 0 0
27.8 0 0
27.9 0 0
28 0 0
28.1 0 0
28.2 0 0
28.3 0 0
28.4 0 0
28.5 0 0
28.6 0 0
28.7 0 0
28.8 0 0
28.9 0 0
29 0 0
29.1 0 0
29.2 0 0
29.3 0 0
29.4 0 0
29.5 0 0
29.6 0 0
29.7 0 0
29.8 0 0
29.9 0 0
30 0 0
30.1 0 0
30.2 0 0
30.3 0 0
30.4 0 0
30.5 0 0
30.6 0 0
30.7 0 0
30.8 0 0
30.9 0 0
31 0 0
31.1 0 0
31.2 0 0
31.3 0 0
31.4 0 0
31.5 0 0
31.6 0 0
31.7 0 0
31.8 0 0
31.9 0 0
32 0 0
32.1 0 0
32.2 0 0
32.3 0 0
32.4 0 0
32.5 0 0
32.6 0 0
32.7 0 0
32.8 0 0
32.9 0 0
33 0 0
33.1 0 0
33.2 0 0
33.3 0 0
33.4 0 0
33.5 0 0
33.6 0 0
33.7 0 0
33.8 0 0
33.9 0 0
34 0 0
34.1 0 0
34.2 0 0
34.3 0 0
34.4 0 0
34.5 0 0
34.6 0 0
34.7 0 0
34.8 0 0
34.9 0 0
35 0 0
35.1 0 0
35.2 0 0
35.3 0 0
35.4 0 0
35.5 0 0
35.6 0 0
35.7 0 0
35.8 0 0
35.9 0 0
36 0 0
36.1 0 0
36.2 0 0
36.3 0 0
36.4 0 0
36.5 0 0
36.6 0 0
36.7 0 0
36.8 0 0
36.9 0 0
37 0 0
37.1 0 0
37.2 0 0
37.3 0 0
37.4 0 0
37.5 0 0
37.6 0 0
37.7 0 0
37.8 0 0
37.9 0 0
38 0 0
38.1 0 0
38.2 0 0
38.3 0 0
38.4 0 0
38.5 0 0
38.6 0 0
38.7 0 0
38.8 0 0
38.9 0 0
39 0 0
39.1 0 0
39.2 0 0
39.3 0 0
39.4 0 0
39.5 0 0
39.6 0 0
39.7 0 0
39.8 0 0
39.9 0 0
40 0 0
40.1 0 0
40.2 0 0
40.3 0 0
40.4 0 0
40.5 0 0
40.6 0 0
40.7 0 0
40.8 0 0
40.9 0 0
41 0 0
41.1 0 0
41.2 0 0
41.3 0 0
41.4 0 0
41.5 0 0
41.6 0 0
41.7 0 0
41.8 0 0
41.9 0 0
42 0 0
42.1 0 0
42.2 0 0
42.3 0 0
42.4 0 0
42.5 0 0
42.6 0 0
42.7 0 0
42.8 0 0
42.9 0 0
43 0 0
43.1 0 0
43.2 0 0
43.3 0 0
43.4 0 0
43.5 0 0
43.6 0 0
43.7 0 0
43.8 0 0
43.9 0 0
44 0 0
44.1 0 0
44.2 0 0
44.3 0 0
44.4 0 0
44.5 0 0
44.6 0 0
44.7 0 0
44.8 0 0
44.9 0 0
45 0 0
45.1 0 0
45.2 0 0
45.3 0 0
45.4 0 0
45.5 0 0
45.6 0 0
45.7 0 0
45.8 0 0
45.9 0 0
46 0 0
46.1 0 0
46.2 0 0
46.3 0 0
46.4 0 0
46.5 0 0
46.6 0 0
46.7 0 0
46.8 0 0
46.9 0 0
47 0 0
47.1 0 0
47.2 0 0
47.3 0 0
47.4 0 0
47.5 0 0
47.6 0 0
47.7 0 0
47.8 0 0
47.9 0 0
48 0 0
48.1 0 0
48.2 0 0
48.3 0 0
48.4 0 0
48.5 0 0
48.6 0 0
48.7 0 0
48.8 0 0
48.9 0 0
49 0 0
49.1 0 0
49.2 0 0
49.3 0 0
49.4 0 0
49.5 0 0
49.6 0 0
49.7 0 0
49.8 0 0
49.9 0 0
50 0 0
50.1 0 0
50.2 0 0
50.3 0 0
50.4 0 0
50.5 0 0
50.6 0 0
50.7 0 0
50.8 0 0
50.9 0 0
51 0 0
51.1 0 0
51.2 0 0
51.3 0 0
51.4 0 0
51.5 0 0
51.6 0 0
51.7 0 0
51.8 0 0
51.9 0 0
52 0 0
52.1 0 0
52.2 0 0
52.3 0 0
52.4 0 0
52.5 0 0
52.6 0 0
52.7 0 0
52.8 0 0
52.9 0 0
53 0 0
53.1 0 0
53.2 0 0
53.3 0 0
53.4 0 0
53.5 0 0
53.6 0 0
53.7 0 0
53.8 0 0
53.9 0 0
54 0 0
54.1 0 0
54.2 0 0
54.3 0 0
54.4 0 0
54.5 0 0
54.6 0 0
54.7 0 0
54.8 0 0
54.9 0 0
55 0 0
55.1 0 0
55.2 0 0
55.3 0 0
55.4 0 0
55.5 0 0
55.6 0 0
55.7 0 0
55.8 0 0
55.9 0 0
56 0 0
56.1 0 0
56.2 0 0
56.3 0 0
56.4 0 0
56.5 0 0
56.6 0 0
56.7 0 0
56.8 0 0
56.9 0 0
57 0 0
57.1 0 0
57.2 0 0
57.3 0 0
57.4 0 0
57.5 0 0
57.6 0 0
57.7 0 0
57.8 0 0
57.9 0 0
58 0 0
58.1 0 0
58.2 0 0
58.3 0 0
58.4 0 0
58.5 0 0
58.6 0 0
58.7 0 0
58.8 0 0
58.9 0 0
59 0 0
59.1 0 0
59.2 0 0
59.3 0 0
59.4 0 0
59.5 0 0
59.6 0 0
59.7 0 0
59.8 0 0
59.9 0 0
60 0 0
60.1 0 0
60.2 0 0
60.3 0 0
60.4 0 0
60.5 0 0
60.6 0 0
60.7 0 0
60.8 0 0
60.9 0 0
61 0 0
61.1 0 0
61.2 0 0
61.3 0 0
61.4 0 0
61.5 0 0
61.6 0 0
61.7 0 0
61.8 0 0
61.9 0 0
62 0 0
62.1 0 0
62.2 0 0
62.3 0 0
62.4 0 0
62.5 0 0
62.6 0 0
62.7 0 0
62.8 0 0
62.9 0 0
63 0 0
63.1 0 0
63.2 0 0
63.3 0 0
63.4 0 0
63.5 0 0
63.6 0 0
63.7 0 0
63.8 0 0
63.9 0 0
64 0 0
64.1 0 0
64.2 0 0
64.3 0 0
64.4 0 0
64.5 0 0
64.6 0 0
64.7 0 0
64.8 0 0
64.9 0 0
65 0 0
65.1 0 0
65.2 0 0
65.3 0 0
65.4 0 0
65.5 0 0
65.6 0 0
65.7 0 0
65.8 0 0
65.9 0 0
66 0 0
66.1 0 0
66.2 0 0
66.3 0 0
66.4 0 0
66.5 0 0
66.6 0 0
66.7 0 0
66.8 0 0
66.9 0 0
67 0 0
67.1 0 0
67.2 0 0
67.3 0 0
67.4 0 0
67.5 0 0
67.6 0 0
67.7 0 0
67.8 0 0
67.9 0 0
68 0 0
68.1 0 0
68.2 0 0
68.3 0 0
68.4 0 0
68.5 0 0
68.6 0 0
68.7 0 0
68.8 0 0
68.9 0 0
69 0 0
69.1 0 0
69.2 0 0
69.3 0 0
69.4 0 0
69.5 0 0
69.6 0 0
69.7 0 0
69.8 0 0
69.9 0 0
70 0 0
70.1 0 0
70.2 0 0
70.3 0 0
70.4 0 0
70.5 0 0
70.6 0 0
70.7 0 0
70.8 0 0
70.9 0 0
71 0 0
71.1 0 0
71.2 0 0
71.3 0 0
71.4 0 0
71.5 0 0
71.6 0 0
71.7 0 0
71.8 0 0
71.9 0 0
72 0 0
72.1 0 0
72.2 0 0
72.3 0 0
72.4 0 0
72.5 0 0
72.6 0 0
72.7 0 0
72.8 0 0
72.9 0 0
73 0 0
73.1 0 0
73.2 0 0
73.3 0 0
73.4 0 0
73.5 0 0
73.6 0 0
73.7 0 0
73.8 0 0
73.9 0 0
74 0 0
74.1 0 0
74.2 0 0
74.3 0 0
74.4 0 0
74.5 0 0
74.6 0 0
74.7 0 0
74.8 0 0
74.9 0 0
75 0 0
75.1 0 0
75.2 0 0
75.3 0 0
75.4 0 0
75.5 0 0
75.6 0 0
75.7 0 0
75.8 0 0
75.9 0 0
76 0 0
76.1 0 0
76.2 0 0
76.3 0 0
76.4 0 0
76.5 0 0
76.6 0 0
76.7 0 0
76.8 0 0
76.9 0 0
77 0 0
77.1 0 0
77.2 0 0
77.3 0 0
77.4 0 0
77.5 0 0
77.6 0 0
77.7 0 0
77.8 0 0
77.9 0 0
78 0 0
78.1 0 0
78.2 0 0
78.3 0 0
78.4 0 0
78.5 0 0
78.6 0 0
78.7 0 0
78.8 0 0
78.9 0 0
79 0 0
79.1 0 0
79.2 0 0
79.3 0 0
79.4 0 0
79.5 0 0
79.6 0 0
79.7 0 0
79.8 0 0
79.9 0 0
80 0 0
80.1 0 0
80.2 0 0
80.3 0 0
80.4 0 0
80.5 0 0
80.6 0 0
80.7 0 0
80.8 0 0
80.9 0 0
81 0 0
81.1 0 0
81.2 0 0
81.3 0 0
81.4 0 0
81.5 0 0
81.6 0 0
81.7 0 0
81.8 0 0
81.9 0 0
82 0 0
82.1 0 0
82.2 0 0
82.3 0 0
82.4 0 0
82.5 0 0
82.6 0 0
82.7 0 0
82.8 0 0
82.9 0 0
83 0 0
83.1 0 0
83.2 0 0
83.3 0 0
83.4 0 0
83.5 0 0
83.6 0 0
83.7 0 0
83.8 0 0
83.9 0 0
84 0 0
84.1 0 0
84.2 0 0
84.3 0 0
84.4 0 0
84.5 0 0
84.6 0 0
84.7 0 0
84.8 0 0
84.9 0 0
85 0 0
85.1 0 0
85.2 0 0
85.3 0 0
85.4 0 0
85.5 0 0
85.6 0 0
85.7 0 0
85.8 0 0
85.9 0 0
86 0 0
86.1 0 0
86.2 0 0
86.3 0 0
86.4 0 0
86.5 0 0
86.6 0 0
86.7 0 0
86.8 0 0
86.9 0 0
87 0 0
87.1 0 0
87.2 0 0
87.3 0 0
87.4 0 0
87.5 0 0
87.6 0 0
87.7 0 0
87.8 0 0
87.9 0 0
88 0 0
88.1 0 0
88.2 0 0
88.3 0 0
88.4 0 0
88.5 0 0
88.6 0 0
88.7 0 0
88.8 0 0
88.9 0 0
89 0 0
89.1 0 0
89.2 0 0
89.3 0 0
89.4 0 0
89.5 0 0
89.6 0 0
89.7 0 0
89.8 0 0
89.9 0 0
90 0 0
90.1 0 0
90.2 0 0
90.3 0 0
90.4 0 0
90.5 0 0
90.6 0 0
90.7 0 0
90.8 0 0
90.9 0 0
91 0 0
91.1 0 0
91.2 0 0
91.3 0 0
91.4 0 0
91.5 0 0
91.6 0 0
91.7 0 0
91.8 0 0
91.9 0 0
92 0 0
92.1 0 0
92.2 0 0
92.3 0 0
92.4 0 0
92.5 0 0
92.6 0 0
92.7 0 0
92.8 0 0
92.9 0 0
93 0 0
93.1 0 0
93.2 0 0
93.3 0 0
93.4 0 0
93.5 0 0
93.6 0 0
93.7 0 0
93.8 0 0
93.9 0 0
94 0 0
94.1 0 0
94.2 0 0
94.3 0 0
94.4 0 0
94.5 0 0
94.6 0 0
94.7 0 0
94.8 0 0
94.9 0 0
95 0 0
95.1 0 0
95.2 0 0
95.3 0 0
95.4 0 0
95.5 0 0
95.6 0 0
95.7 0 0
95.8 0 0
95.9 0 0
96 0 0
96.1 0 0
96.2 0 0
96.3 0 0
96.4 0 0
96.5 0 0
96.6 0 0
96.7 0 0
96.8 0 0
96.9 0 0
97 0 0
97.1 0 0
97.2 0 0
97.3 0 0
97.4 0 0
97.5 0 0
97.6 0 0
97.7 0 0
97.8 0 0
97.9 0 0
98 0 0
98.1 0 0
98.2 0 0
98.3 0 0
98.4 0 0
98.5 0 0
98.6 0 0
98.7 0 0
98.8 0 0
98.9 0 0
99 0 0
99.1 0 0
99.2 0 0
99.3 0 0
99.4 0 0
99.5 0 0
99.6 0 0
99.7 0 0
99.8 0 0
99.9 0 0
100 0 0
100.1 0 0
100.2 0 0
100.3 0 0
100.4 0 0
100.5 0 0
100.6 0 0
100.7 0 0
100.8 0 0
100.9 0 0
101 0 0
101.1 0 0
101.2 0 0
101.3 0 0
101.4 0 0
101.5 0 0
101.6 0 0
101.7 0 0
101.8 0 0
101.9 0 0
102 0 0
102.1 0 0
102.2 0 0
102.3 0 0
102.4 0 0
102.5 0 0
102.6 0 0
102.7 0 0
102.8 0 0
102.9 0 0
103 0 0
103.1 0 0
103.2 0 0
103.3 0 0
103.4 0 0
103.5 0 0
103.6 0 0
103.7 0 0
103.8 0 0
103.9 0 0
104 0 0
104.1 0 0
104.2 0 0
104.3 0 0
104.4 0 0
104.5 0 0
104.6 0 0
104.7 0 0
104.8 0 0
104.9 0 0
105 0 0
105.1 0 0
105.2 0 0
105.3 0 0
105.4 0 0
105.5 0 0
105.6 0 0
105.7 0 0
105.8 0 0
105.9 0 0
106 0 0
106.1 0 0
106.2 0 0
106.3 0 0
106.4 0 0
106.5 0 0
106.6 0 0
106.7 0 0
106.8 0 0
106.9 0 0
107 0 0
107.1 0 0
107.2 0 0
107.3 0 0
107.4 0 0
107.5 0 0
107.6 0 0
107.7 0 0
107.8 0 0
107.9 0 0
108 0 0
108.1 0 0
108.2 0 0
108.3 0 0
108.4 0 0
108.5 0 0
108.6 0 0
108.7 0 0
108.8 0 0
108.9 0 0
109 0 0
109.1 0 0
109.2 0 0
109.3 0 0
109.4 0 0
109.5 0 0
109.6 0 0
109.7 0 0
109.8 0 0
109.9 0 0
110 0 0
110.1 0 0
110.2 0 0
110.3 0 0
110.4 0 0
110.5 0 0
110.6 0 0
110.7 0 0
110.8 0 0
110.9 0 0
111 0 0
111.1 0 0
111.2 0 0
111.3 0 0
111.4 0 0
111.5 0 0
111.6 0 0
111.7 0 0
111.8 0 0
111.9 0 0
112 0 0
[...]
POINT_DATA 83304

SCALARS pressure float 1
LOOKUP_TABLE default
0
0
0
0
0
0
0
0
0
0
0
0
0
0
0
0
0
0
0
0
0
0
0
0
0
0
0
0
0
0
0
0
0
0
0
0
0
0
0
0
0
0
0
0
0
0
0
0
0
0
0
0
0
0
0
0
0
0
0
0
0
0
0
0
0
0
0
0
0
0
0
0
0
0
0
0
0
0
0
0
0
0
0
0
0
0
0
0
0
0
0
0
0
0
0
0
0
0
0
0
0
0
0
0
0
0
0
0
0
0
0
0
0
0
0
0
0
0
0
0
0
0
0
0
0
0
0
0
0
0
0
0
0
0
0
0
0
0
0
0
0
0
0
0
0
0
0
0
0
0
0
0
0
0
0
0
0
0
0
0
0
0
0
0
0
0
0
0
0
0
0
0
0
0
0
0
0
0
0
0
0
0
0
0
0
0
0
0
0
0
0
0
0
0
0
0
0
0
0
0
0
0
0
0
0
0
0
0
0
0
0
0
0
0
0
0
0
0
0
0
0
0
0
0
0
0
0
0
0
0
0
0
0
0
0
0
0
0
0
0
0
0
0
0
0
0
0
0
0
0
0
0
0
0
0
0
0
0
0
0
0
0
0
0
0
0
0
0
0
0
0
0
0
0
0
0
0
0
0
0
0
0
0
0
0
0
0
0
0
0
0
0
0
0
0
0
0
0
0
0
0
0
0
0
0
0
0
0
0
0
0
0
0
0
0
0
0
0
0
0
0
0
0
0
0
0
0
0
0
0
0
0
0
0
0
0
0
0
0
0
0
0
0
0
0
0
0
0
0
0
0
0
0
0
0
0
0
0
0
0
0
0
0
0
0
0
0
0
0
0
0
0
0
0
0
0
0
0
0
0
0
0
0
0
0
0
0
0
0
0
0
0
0
0
0
0
0
0
0
0
0
0
0
0
0
0
0
0
0
0
0
0
0
0
0
0
0
0
0
0
0
0
0
0
0
0
0
0
0
0
0
0
0
0
0
0
0
0
0
0
0
0
0
0
0
0
0
0
0
0
0
0
0
0
0
0
0
0
0
0
0
0
0
0
0
0
0
0
0
0
0
0
0
0
0
0
0
0
0
0
0
0
0
0
0
0
0
0
0
0
0
0
0
0
0
0
0
0
0
0
0
0
0
0
0
0
0
0
0
0
0
0
0
0
0
0
0
0
0
0
0
0
0
0
0
0
0
0
0
0
0
0
0
0
0
0
0
0
0
0
0
0
0
0
0
0
0
0
0
0
0
0
0
0
0
0
0
0
0
0
0
0
0
0
0
0
0
0
0
0
0
0
0
0
0
0
0
0
0
0
0
0
0
0
0
0
0
0
0
0
0
0
0
0
0
0
0
0
0
0
0
0
0
0
0
0
0
0
0
0
0
0
0
0
0
0
0
0
0
0
0
0
0
0
0
0
0
0
0
0
0
0
0
0
0
0
0
0
0
0
0
0
0
0
0
0
0
0
0
0
0
0
0
0
0
0
0
0
0
0
0
0
0
0
0
0
0
0
0
0
0
0
0
0
0
0
0
0
0
0
0
0
0
0
0
0
0
0
0
0
0
0
0
0
0
0
0
0
0
0
0
0
0
0
0
0
0
0
0
0
0
0
0
0
0
0
0
0
0
0
0
0
0
0
0
0
0
0
0
0
0
0
0
0
0
0
0
0
0
0
0
0
0
0
0
0
0
0
0
0
0
0
0
0
0
0
0
0
0
0
0
0
0
0
0
0
0
0
0
0
0
0
0
0
0
0
0
0
0
0
0
0
0
0
0
0
0
0
0
0
0
0
0
0
0
0
0
0
0
0
0
0
0
0
0
0
0
0
0
0
0
0
0
0
0
0
0
0
0
0
0
0
0
0
0
0
0
0
0
0
0
0
0
0
0
0
0
0
0
0
0
0
0
0
0
0
0
0
0
0
0
0
0
0
0
0
0
0
0
0
0
0
0
0
0
0
0
0
0
0
0
0
0
0
0
0
0
0
0
0
0
0
0
0
0
0
0
0
0
0
0
0
0
0
0
0
0
0
0
0
0
0
0
0
0
0
0
0
0
0
0
0
0
0
0
0
0
0
0
0
0
0
0
0
0
0
0
0
0
0
0
0
0
0
0
0
0
0
0
0
0
0
0
0
0
0
0
0
0
0
0
0
0
0
0
0
0
0
0
0
0
0
0
0
0
0
0
0
0
0
0
0
0
0
0
0
0
0
0
0
0
0
0
0
0
0
0
0
0
0
0
0
0
0
0
0
0
0
0
0
0
0
0
0
0
0
0
0
0
0
0
0
0
0
0
0
0
0
0
0
0
0
0
0
0
0
0
0
0
0
0
0
0
0
0
0
0
0
0
0
0
0
0
0
0
0
0
0
0
0
0
0
0
0
0
0
0
0
0
0
0
0
0
0
0
0
0
0
0
0
0
0
0
0
0
0
0
0
0
0
0
0
0
0
0
0
0
0
0
0
0
0
0
0
0
0
0
0
0
0
0
0
0
0
0
0
0
0
0
0
0
0
0
0
0
0
0
0
0
0
0
0
0
0
0
0
0
0
0
0
0
0
0
0
0
0
0
0
0
0
0
0
0
0
0
0
0
0
0
0
0
0
0
0
0
0
0
0
0
0
0
0
0
0
0
0
0
0
0
0
0
0
0
0
0
0
0
0
0
0
0
0
0
0
0
0
0
0
0
0
0
0
0
0
0
0
0
0
0
0
0
0
0
0
0
0
0
0
0
0
0
0
0
0
0
0
0
0
0
0
0
0
0
0
0
0
0
0
0
0
0
0
0
0
0
0
0
0
0
0
0
0
0
0
0
0
0
0
0
0
0
0
0
0
0
0
0
0
0
0
0
0
0
0
0
0
0
0
0
0
0
0
0
0
0
0
0
0
0
0
0
0
0
0
0
0
0
0
0
0
0
0
0
0
0
0
0
0
0
0
0
0
0
0
0
0
0
0
0
0
0
0
0
0
0
0
0
0
0
0
0
0
0
0
0
0
0
0
0
0
0
0
0
0
0
0
0
0
0
0
0
0
0
0
0
0
0
0
0
0
0
0
0
0
0
0
0
0
0
0
0
0
0
0
0
0
0
0
0
0
0
0
0
0
0
0
0
0
0
0
0
0
0
0
0
0
0
0
0
0
0
0
0
0
0
0
0
0
0
0
0
0
0
0
0
0
0
0
0
0
0
0
0
0
0
0
0
0
0
0
0
0
0
0
0
0
0
0
0
0
0
0
0
0
0
0
0
0
0
0
0
0
0
0
0
0
0
0
0
0
0
0
0
0
0
0
0
0
0
0
0
0
0
0
0
0
0
0
0
0
0
0
0
0
0
0
0
0
0
0
0
0
0
0
0
0
0
0
0
0
0
0
0
0
0
0
0
0
0
0
0
0
0
0
0
0
0
0
0
0
0
0
0
0
0
0
0
0
0
0
0
0
0
0
0
0
0
0
0
0
0
0
0
0
0
0
0
0
0
0
0
0
0
0
0
0
0
0
0
0
0
0
0
0
0
0
0
0
0
0
0
0
0
0
0
0
0
0
0
0
0
0
0
0
0
0
0
0
0
0
0
0
0
0
0
0
0
0
0
0
0
0
0
0
0
0
0
0
0
0
0
0
0
0.0776415
0.052903
0.0436505
0.0357426
0.03048
0.0271088
0.0248019
0.023116
0.0218008
0.0207277
0.0198235
0.0190436
0.0183596
0.0177519
0.0172066
0.0167134
0.0162643
0.0158532
0.0154749
0.0151254
0.0148012
0.0144993
0.0142174
0.0139533
0.0137051
0.0134714
0.0132506
0.0130416
0.0128434
0.0126549
0.0124753
0.0123039
0.0121401
0.0119833
0.0118328
0.0116884
0.0115494
0.0114156
0.0112866
0.0111621
0.0110418
0.0109254
0.0108128
0.0107037
0.0105979
0.0104952
0.0103955
0.0102987
0.0102045
0.0101129
0.0100238
0.00993702
0.00985251
0.00977015
0.00968989
0.00961163
0.00953532
0.00946088
0.00938825
0.00931738
0.00924821
0.0091807
0.0091148
0.00905047
0.00898766
0.00892633
0.00886646
0.008808
0.00875092
0.0086952
0.0086408
0.00858769
0.00853584
0.00848524
0.00843585
0.00838766
0.00834062
0.00829474
0.00824997
0.0082063
0.00816371
0.00812217
0.00808167
0.00804219
0.0080037
0.00796618
0.00792962
0.007894
0.0078593
0.00782549
0.00779256
0.0077605
0.00772927
0.00769888
0.00766929
0.00764049
0.00761246
0.00758519
0.00755865
0.00753284
0.00750773
0.00748331
0.00745957
0.00743648
0.00741403
0.0073922
0.00737098
0.00735036
0.00733032
0.00731084
0.00729192
0.00727353
0.00725567
0.00723831
0.00722145
0.00720507
0.00718917
0.00717372
0.00715871
0.00714414
0.00712998
0.00711623
0.00710288
0.00708991
0.00707732
0.0070651
0.00705323
0.0070417
0.00703052
0.00701967
0.00700915
0.00699894
0.00698904
0.00697944
0.00697013
0.00696111
0.00695236
0.00694387
0.00693563
0.00692764
0.00691989
0.00691238
0.0069051
0.00689806
0.00689127
0.00688473
0.00687844
0.00687242
0.00686666
0.00686116
0.00685588
0.00685079
0.00684583
0.00684094
0.00683602
0.00683099
0.00682578
0.00682036
0.00681473
0.006809
0.00680338
0.00679823
0.00679403
0.00679146
0.00679127
0.00679433
0.00680148
0.00681342
0.00683056
0.00685278
0.0068792
0.00690794
0.00693587
0.0069584
0.00696932
0.00696081
0.00692356
0.00684709
0.00672041
0.00653287
0.00627543
0.00594228
0.00553285
0.00505404
0.00452273
0.00396821
0.00343409
0.00297933
0.00267757
0.00261441
0.0028821
0.00357211
0.00476642
0.0065279
0.00889283
0.0118665
0.0154206
0.0194942
0.0239991
0.0288282
0.033858
0.0389503
0.0439672
0.0487824
0.0532689
0.057286
0.0607034
0.0634504
0.0655304
0.0669812
0.0678282
0.0680731
0.0677152
0.0667735
0.065293
0.0633368
0.0609775
0.0582899
0.0553479
0.0522226
0.048981
0.045685
0.0423899
0.0391435
0.0359857
0.0329482
0.0300552
0.0273236
0.024764
0.0223818
0.0201779
0.0181498
0.016292
0.0145973
0.0130571
0.0116618
0.0104015
0.00926595
0.00824523
0.00732957
0.00650965
0.00577666
0.00512234
0.00453901
0.00401958
0.00355753
0.00314692
0.00278234
0.00245888
0.0021721
0.00191802
0.00169304
0.00149393
0.00131781
0.0011621
0.00102448
0.000902911
0.000795556
0.000700787
0.000617155
0.000543376
0.000478307
0.000420937
0.000370368
0.000325805
0.000286545
0.000251966
0.000221515
0.000194707
0.000171111
0.000150345
0.000132076
0.000116005
0.000101871
8.94431e-05
7.85175e-05
6.89143e-05
6.04751e-05
5.30601e-05
4.65464e-05
4.08252e-05
3.58012e-05
3.13902e-05
2.7518e-05
2.41195e-05
2.11372e-05
1.85206e-05
1.62252e-05
1.4212e-05
1.24465e-05
1.08986e-05
9.54167e-06
8.35233e-06
7.31006e-06
6.39684e-06
5.59681e-06
4.89606e-06
4.28238e-06
3.74502e-06
3.27458e-06
2.86279e-06
2.50239e-06
2.18702e-06
1.91111e-06
1.66974e-06
1.45864e-06
1.27403e-06
1.11261e-06
9.71499e-07
8.48155e-07
7.4036e-07
6.46168e-07
5.63874e-07
4.91988e-07
4.29202e-07
3.74373e-07
3.265e-07
2.84706e-07
2.48226e-07
2.16388e-07
1.88607e-07
1.64368e-07
1.43223e-07
1.24781e-07
1.08697e-07
9.46734e-08
8.24469e-08
7.17891e-08
6.25002e-08
5.44054e-08
4.73523e-08
4.12077e-08
3.58555e-08
3.1194e-08
2.71348e-08
2.36005e-08
2.05236e-08
1.78455e-08
1.55147e-08
1.34864e-08
1.17217e-08
1.01865e-08
8.85116e-09
7.68983e-09
6.67996e-09
5.80193e-09
5.03863e-09
4.37516e-09
3.79854e-09
3.29748e-09
2.86213e-09
2.48392e-09
2.15541e-09
1.87009e-09
1.62233e-09
1.40721e-09
1.22046e-09
1.05835e-09
9.1765e-10
7.95553e-10
6.89612e-10
5.97702e-10
5.17974e-10
4.48823e-10
3.88854e-10
3.36855e-10
2.91771e-10
2.52689e-10
2.18815e-10
1.89457e-10
1.64017e-10
1.41975e-10
1.2288e-10
1.06339e-10
9.20139e-11
7.96082e-11
6.88665e-11
5.95667e-11
5.15164e-11
4.45484e-11
3.85181e-11
3.33e-11
2.87852e-11
2.48794e-11
2.15009e-11
1.85789e-11
1.6052e-11
1.38671e-11
1.19781e-11
1.03451e-11
8.93371e-12
7.7139e-12
6.65982e-12
5.74907e-12
4.96226e-12
4.28261e-12
3.69559e-12
3.18864e-12
2.7509e-12
2.37296e-12
2.0467e-12
1.76508e-12
1.52202e-12
1.31227e-12
1.13129e-12
9.7515e-13
8.40456e-13
7.24279e-13
6.24085e-13
5.37685e-13
4.6319e-13
3.98968e-13
3.43607e-13
2.95892e-13
2.54772e-13
2.19339e-13
1.88811e-13
1.62512e-13
1.39859e-13
1.20348e-13
1.03547e-13
8.90798e-14
7.66246e-14
6.59027e-14
5.6674e-14
4.87316e-14
4.18971e-14
3.60165e-14
3.09575e-14
2.66057e-14
2.28628e-14
1.9644e-14
1.68762e-14
1.44965e-14
1.24508e-14
1.06924e-14
9.18121e-15
7.88256e-15
6.76673e-15
5.8081e-15
4.98465e-15
4.2774e-15
3.67003e-15
3.14851e-15
2.70076e-15
2.31639e-15
1.98648e-15
1.70334e-15
1.46038e-15
1.25191e-15
1.07305e-15
9.19602e-16
7.87965e-16
6.75035e-16
5.78151e-16
4.95036e-16
4.23746e-16
3.62624e-16
3.10258e-16
2.65444e-16
2.27146e-16
1.94469e-16
1.66627e-16
1.42932e-16
1.22773e-16
1.05607e-16
9.0949e-17
7.83615e-17
6.74416e-17
5.78188e-17
4.91636e-17
4.12128e-17
3.38088e-17
2.6942e-17
2.07757e-17
1.56337e-17
1.19305e-17
1.00473e-17
1.01704e-17
1.2137e-17
1.53422e-17
1.87582e-17
2.10949e-17
2.10876e-17
1.78547e-17
1.12304e-17
1.96195e-18
-8.31643e-18
-1.73704e-17
-2.28752e-17
-2.30365e-17
-1.71592e-17
-5.99158e-18
8.28276e-18
2.24476e-17
3.29828e-17
3.695e-17
3.28056e-17
2.09105e-17
3.57679e-18
-1.53955e-17
-3.1596e-17
-4.1085e-17
-4.13988e-17
-3.22144e-17
-1.54865e-17
4.98878e-18
2.44804e-17
3.84718e-17
4.37578e-17
3.92122e-17
2.60335e-17
7.41547e-18
-1.22632e-17
-2.85146e-17
-3.78082e-17
-3.83642e-17
-3.04917e-17
-1.64099e-17
3.76033e-19
1.59669e-17
2.6997e-17
3.13718e-17
2.8653e-17
2.0026e-17
7.89284e-18
-4.78197e-18
-1.51947e-17
-2.1319e-17
-2.22828e-17
-1.84407e-17
-1.11602e-17
-2.4013e-18
5.78802e-18
1.1736e-17
1.44682e-17
1.38314e-17
1.0418e-17
5.33381e-18
-1.14404e-19
-4.73232e-18
-7.67995e-18
-8.59963e-18
-7.61849e-18
-5.24458e-18
-2.19665e-18
7.84121e-19
3.09575e-18
4.37958e-18
4.55393e-18
3.78223e-18
2.39439e-18
7.86916e-19
-6.72695e-19
-1.71731e-18
-2.21662e-18
-2.17754e-18
-1.71565e-18
-1.00934e-18
-2.50239e-19
3.99059e-19
8.32352e-19
1.00966e-18
9.51212e-19
7.20218e-19
4.0056e-19
7.51351e-20
-1.90728e-19
-3.58493e-19
-4.18031e-19
-3.83055e-19
-2.82759e-19
-1.52293e-19
-2.42939e-20
7.70162e-20
1.38601e-19
1.58438e-19
1.43177e-19
1.04637e-19
5.61652e-20
9.60964e-21
-2.66222e-20
-4.83184e-20
-5.51851e-20
-4.98665e-20
-3.66442e-20
-2.01625e-20
-4.42725e-21
7.79624e-21
1.51771e-20
1.76778e-20
1.62e-20
1.21461e-20
7.00852e-21
2.05733e-21
-1.83853e-21
-4.26119e-21
-5.19199e-21
-4.89793e-21
-3.79663e-21
-2.33241e-21
-8.84219e-22
2.86201e-22
1.04821e-21
1.38691e-21
1.37046e-21
1.11175e-21
7.3334e-22
3.4163e-22
1.20386e-23
-2.15248e-22
-3.31576e-22
-3.51379e-22
-3.0211e-22
-2.14975e-22
-1.1796e-22
-3.17267e-23
3.17892e-23
6.87012e-23
8.12236e-23
7.52415e-23
5.80122e-23
3.63822e-23
1.56806e-23
-7.35699e-25
-1.14202e-23
-1.64462e-23
-1.68724e-23
-1.42126e-23
-1.00052e-23
-5.52838e-24
-1.66161e-24
1.13244e-24
2.7438e-24
3.31023e-24
3.1047e-24
2.43867e-24
1.59294e-24
7.78875e-25
1.25981e-25
-3.11338e-25
-5.36102e-25
-5.87271e-25
-5.19731e-25
-3.888e-25
-2.40363e-25
-1.06333e-25
-4.26486e-27
6.03578e-26
9.0558e-26
9.41456e-26
8.05568e-26
5.86028e-26
3.51815e-26
1.48135e-26
-2.30051e-28
-9.45653e-27
-1.35528e-26
-1.38122e-26
-1.16782e-26
-8.43875e-27
-5.0669e-27
-2.17766e-27
-6.35247e-29
1.22852e-27
1.80816e-27
1.86123e-27
1.58803e-27
1.16369e-27
7.18693e-28
3.34726e-28
5.05211e-29
-1.27366e-28
-2.12669e-28
-2.28903e-28
-2.01463e-28
-1.5262e-28
-9.90861e-29
-5.15037e-29
-1.51711e-29
8.64048e-30
2.1236e-29
2.52163e-29
2.35111e-29
1.87597e-29
1.29979e-29
7.57491e-30
3.22014e-30
1.8353e-31
-1.60349e-30
-2.38246e-30
-2.45541e-30
-2.11004e-30
-1.5791e-30
-1.02601e-30
-5.47979e-31
-1.88609e-31
4.61508e-32
1.72791e-31
2.17921e-31
2.09627e-31
1.72325e-31
1.24446e-31
7.80837e-32
3.98282e-32
1.21142e-32
-5.3482e-33
-1.43339e-32
-1.71691e-32
-1.61203e-32
-1.30625e-32
-9.3561e-33
-5.86046e-33
-3.02088e-33
-9.82757e-34
2.97638e-34
9.61946e-34
1.18379e-33
1.12738e-33
9.26129e-34
6.75776e-34
4.36489e-34
2.3959e-34
9.57541e-35
2.71133e-36
-4.85284e-35
-6.9237e-35
-7.01971e-35
-6.02714e-35
-4.59226e-35
-3.13246e-35
-1.87749e-35
-9.20709e-36
-2.67603e-36
1.24506e-36
3.17764e-36
3.75371e-36
3.51549e-36
2.8753e-36
2.11385e-36
1.39935e-36
8.14688e-37
3.84869e-37
1.00347e-37
-6.53811e-38
-1.43876e-37
-1.64695e-37
-1.51952e-37
-1.23315e-37
-9.04374e-38
-6.00846e-38
-3.54503e-38
-1.73815e-38
-5.36884e-39
1.73406e-39
5.23943e-39
6.35466e-39
6.05638e-39
5.05871e-39
3.83516e-39
2.66534e-39
1.68747e-39
9.46359e-40
4.31814e-40
1.06549e-40
-7.54386e-41
-1.58115e-40
-1.78143e-40
-1.63214e-40
-1.32477e-40
-9.79787e-41
-6.64167e-41
-4.08026e-41
-2.1837e-41
-8.94171e-42
-9.67886e-43
3.36218e-42
5.21167e-42
5.52179e-42
4.98864e-42
4.08599e-42
3.10823e-42
2.21738e-42
1.48551e-42
9.2879e-43
5.3259e-43
2.68494e-43
1.04825e-43
1.24518e-44
-3.26092e-44
-4.85673e-44
-4.83157e-44
-4.03748e-44
-2.99518e-44
-1.99148e-44
-1.15922e-44
-5.3772e-45
-1.15304e-45
1.42867e-45
2.77938e-45
3.28275e-45
3.25404e-45
2.93e-45
2.47482e-45
1.9933e-45
1.5456e-45
1.16082e-45
8.47995e-46
6.04412e-46
4.21399e-46
2.88083e-46
1.93615e-46
1.28341e-46
8.4272e-47
5.51403e-47
3.62369e-47
2.41514e-47
1.64951e-47
1.16472e-47
8.54089e-48
6.49537e-48
5.08946e-48
4.07074e-48
3.29257e-48
2.67211e-48
2.16338e-48
1.74057e-48
1.38836e-48
1.09644e-48
8.56786e-49
6.62343e-49
5.0659e-49
3.83446e-49
2.87325e-49
2.13221e-49
1.56765e-49
1.14234e-49
8.25357e-50
5.9148e-50
4.20572e-50
2.96811e-50
2.07965e-50
1.44707e-50
1.0002e-50
6.86899e-51
4.68812e-51
3.18049e-51
2.14518e-51
1.43875e-51
9.59694e-52
6.36753e-52
4.20305e-52
2.7604e-52
1.80406e-52
1.17342e-52
7.59673e-53
4.89575e-53
3.14105e-53
2.00647e-53
1.27625e-53
8.08385e-54
5.09937e-54
3.20379e-54
2.0049e-54
1.24978e-54
7.76092e-55
4.80133e-55
2.95941e-55
1.81747e-55
1.11218e-55
6.78182e-56
4.12106e-56
2.49564e-56
1.50621e-56
9.06023e-57
5.43204e-57
3.24619e-57
1.93371e-57
1.14823e-57
6.79684e-58
4.01087e-58
2.35961e-58
1.38397e-58
8.09303e-59
4.71855e-59
2.74303e-59
1.58999e-59
9.18981e-60
5.29643e-60
3.04394e-60
1.74452e-60
9.97042e-61
5.68278e-61
3.23019e-61
1.83115e-61
1.03529e-61
5.83778e-62
3.28318e-62
1.84166e-62
1.03039e-62
5.75016e-63
3.20077e-63
1.77718e-63
9.84286e-64
5.43789e-64
2.99686e-64
1.64755e-64
9.03553e-65
4.94332e-65
2.69799e-65
1.46902e-65
7.97967e-66
4.32434e-66
2.33798e-66
1.26111e-66
6.78672e-67
3.64394e-67
1.95206e-67
1.04335e-67
5.56402e-68
2.96056e-68
1.57178e-68
8.32626e-69
4.40099e-69
2.32114e-69
1.22153e-69
6.41459e-70
3.36123e-70
1.7575e-70
9.16999e-71
4.77443e-71
2.4806e-71
1.28612e-71
6.65429e-72
3.43572e-72
1.77026e-72
9.10254e-73
4.67089e-73
2.39195e-73
1.22243e-73
6.23473e-74
3.17352e-74
1.61211e-74
8.17307e-75
4.13537e-75
2.08828e-75
1.05247e-75
5.29394e-76
2.65769e-76
1.33164e-76
6.65937e-77
3.32387e-77
1.65586e-77
8.2333e-78
4.08603e-78
2.02398e-78
1.00068e-78
4.9382e-79
2.43238e-79
1.19587e-79
5.8686e-80
2.87463e-80
1.4055e-80
6.85935e-81
3.34151e-81
1.62485e-81
7.88673e-82
3.82117e-82
1.84805e-82
8.92184e-83
4.29951e-83
2.06829e-83
9.9319e-84
4.76088e-84
2.27812e-84
1.08819e-84
5.18887e-85
2.46993e-85
1.17366e-85
5.56735e-86
2.63636e-86
1.24628e-86
5.8814e-87
2.7708e-87
1.30313e-87
6.11839e-88
2.86781e-88
1.34193e-88
6.26875e-89
2.92351e-89
1.36114e-89
6.32668e-90
2.93582e-90
1.36008e-90
6.29045e-91
2.90459e-91
1.33899e-91
6.16252e-92
2.8316e-92
1.29897e-92
5.94925e-93
2.72034e-93
1.2419e-93
5.66043e-94
2.57583e-94
1.17029e-94
5.30853e-95
2.40418e-95
1.0871e-95
4.90784e-96
2.2122e-96
9.95581e-97
4.47351e-97
2.00697e-97
8.98995e-98
4.02067e-98
1.79542e-98
8.00504e-99
3.56362e-99
1.58398e-99
7.02982e-100
3.11511e-100
1.37829e-100
6.08899e-101
2.68591e-101
1.18299e-101
5.20251e-102
2.2845e-102
1.00166e-102
4.38524e-103
1.91699e-103
8.36753e-104
3.64695e-104
1.58715e-104
6.89702e-105
2.99271e-105
1.29667e-105
5.60987e-106
2.42349e-106
1.04543e-106
4.50311e-107
1.93687e-107
8.3187e-108
3.56765e-108
1.52785e-108
6.53361e-109
2.78997e-109
1.18966e-109
5.06554e-110
2.15381e-110
9.14467e-111
3.87714e-111
1.64149e-111
6.93987e-112
2.92988e-112
1.23519e-112
5.20008e-113
2.18612e-113
9.17765e-114
3.84752e-114
1.61074e-114
6.73386e-115
2.81125e-115
1.17202e-115
4.87942e-116
2.02863e-116
8.42246e-117
3.49203e-117
1.44585e-117
5.97822e-118
2.46848e-118
1.01787e-118
4.19148e-119
1.72366e-119
7.07863e-120
2.90308e-120
1.189e-120
4.8632e-121
1.98645e-121
8.10312e-122
3.30099e-122
1.34294e-122
5.45621e-123
2.21385e-123
8.97072e-124
3.63021e-124
1.46711e-124
5.92133e-125
2.38673e-125
9.60767e-126
3.86245e-126
1.55074e-126
6.21794e-127
2.48993e-127
9.95781e-128
3.97718e-128
1.58644e-128
6.3199e-129
2.51441e-129
9.9908e-130
3.96466e-130
1.57128e-130
6.21934e-131
2.45855e-131
9.70641e-132
3.82723e-132
1.50715e-132
5.92758e-133
2.32834e-133
9.13413e-134
3.5788e-134
1.40043e-134
5.47314e-135
2.13632e-135
8.3282e-136
3.24259e-136
1.26093e-136
4.89717e-137
1.89959e-137
7.35924e-138
2.84752e-138
1.10043e-138
4.24739e-139
1.63736e-139
6.30421e-140
2.42428e-140
9.31109e-141
3.57179e-141
1.36848e-141
5.23673e-142
2.00149e-142
7.64038e-143
2.91306e-143
1.10932e-143
4.21926e-144
1.60284e-144
6.08163e-145
2.30476e-145
8.72383e-146
3.29813e-146
1.24539e-146
4.69704e-147
1.76938e-147
6.65735e-148
2.50186e-148
9.3909e-149
3.52075e-149
1.3184e-149
4.93111e-150
1.84216e-150
6.87383e-151
2.56187e-151
9.53683e-152
3.54601e-152
1.31694e-152
4.88522e-153
1.81006e-153
6.69876e-154
2.47622e-154
9.14279e-155
3.37181e-155
1.24206e-155
4.57003e-156
1.67955e-156
6.16543e-157
2.26065e-157
8.27949e-158
3.02882e-158
1.10674e-158
4.03941e-159
1.47263e-159
5.36257e-160
1.95054e-160
7.08669e-161
2.5718e-161
9.32259e-162
3.37554e-162
1.22084e-162
4.41043e-163
1.59152e-163
5.73661e-164
2.06542e-164
7.428e-165
2.66838e-165
9.57497e-166
3.43194e-166
1.22873e-166
4.39428e-167
1.56977e-167
5.60142e-168
1.99654e-168
7.10848e-169
2.5281e-169
8.98109e-170
3.18702e-170
1.12969e-170
3.99997e-171
1.41474e-171
4.99823e-172
1.76393e-172
6.21825e-173
2.18968e-173
7.70226e-174
2.70633e-174
9.49884e-175
3.33033e-175
1.16636e-175
4.08042e-176
1.42596e-176
4.97781e-177
1.7358e-177
6.04634e-178
2.10386e-178
7.31263e-179
2.539e-179
8.80615e-180
3.051e-180
1.05593e-180
3.65058e-181
1.26074e-181
4.34936e-182
1.49886e-182
5.15985e-183
1.77439e-183
6.0954e-184
2.09168e-184
7.17013e-185
2.45528e-185
8.39876e-186
2.86993e-186
9.79651e-187
3.34052e-187
1.13789e-187
3.87197e-188
1.31616e-188
4.46921e-189
1.516e-189
5.13705e-190
1.73891e-190
5.88013e-191
1.9863e-191
6.70276e-192
2.2595e-192
7.60886e-193
2.55964e-193
8.60179e-194
2.88769e-194
9.68425e-195
3.2444e-195
1.08582e-195
3.63021e-196
1.21245e-196
4.04528e-197
1.34831e-197
4.48941e-198
1.49329e-198
4.96201e-199
1.64713e-199
5.46209e-200
1.80945e-200
5.9882e-201
1.97973e-201
6.53845e-202
2.15728e-202
7.11048e-203
2.34128e-203
7.70145e-204
2.53078e-204
8.30807e-205
2.72465e-205
8.92659e-206
2.92164e-206
9.55285e-207
3.12037e-207
1.01823e-207
3.31937e-208
1.08102e-208
3.51704e-209
1.14312e-209
3.71172e-210
1.20401e-210
3.9017e-211
1.26313e-211
4.08524e-212
1.31995e-212
4.26059e-213
1.3739e-213
4.42604e-214
1.42445e-214
4.57991e-215
1.47109e-215
4.72062e-216
1.51333e-216
4.8467e-217
1.55073e-217
4.95681e-218
1.58288e-218
5.04975e-219
1.60943e-219
5.12453e-220
1.63011e-220
5.18034e-221
1.64468e-221
5.21659e-222
1.653e-222
5.2329e-223
1.65499e-223
5.22913e-224
1.65063e-224
5.20537e-225
1.63998e-225
5.16194e-226
1.6232e-226
5.09937e-227
1.60047e-227
5.01841e-228
1.57207e-228
4.92001e-229
1.53832e-229
4.80528e-230
1.49961e-230
4.67551e-231
1.45636e-231
4.5321e-232
1.40903e-232
4.37658e-233
1.35813e-233
4.21054e-234
1.30415e-234
4.03563e-235
1.24764e-235
3.85354e-236
1.18912e-236
3.66596e-237
1.12913e-237
3.47453e-238
1.06818e-238
3.28088e-239
1.00678e-239
3.08655e-240
9.45391e-241
2.893e-241
8.84471e-242
2.70159e-242
8.24429e-243
2.51355e-243
7.65637e-244
2.33002e-244
7.0843e-245
2.15197e-245
6.53097e-246
1.98026e-246
5.99886e-247
1.8156e-247
5.49002e-248
1.65857e-248
5.00606e-249
1.50961e-249
4.54819e-250
1.36905e-250
4.11723e-251
1.23708e-251
3.71362e-252
1.11379e-252
3.33749e-253
9.99181e-254
2.98866e-254
8.93136e-255
2.66667e-255
7.9548e-256
2.37083e-256
7.05963e-257
2.10027e-257
6.2428e-258
1.85394e-258
5.50077e-259
1.63066e-259
4.82968e-260
1.42918e-260
4.22539e-261
1.24814e-261
3.68359e-262
1.08617e-262
3.19989e-263
9.41871e-264
2.76989e-264
8.13862e-265
2.38922e-265
7.00773e-266
2.05361e-266
6.01277e-267
1.75894e-267